 Entering Gaussian System, Link 0=g16
 Input=AgAS_A1.com
 Output=AgAS_A1.log
 Initial command:
 /opt/rit/el9/20230413/app/linux-rhel9-x86_64_v3/gcc-11.2.1/gaussian-16-C.01-3yzt2xlc3n3d45c3wnnzh2wvb3eacy2v/g16/l1.exe "/home/nesedeek/AgAS_Project/Gauss/Gau-299419.inp" -scrdir="/home/nesedeek/AgAS_Project/Gauss/"
 Entering Link 1 = /opt/rit/el9/20230413/app/linux-rhel9-x86_64_v3/gcc-11.2.1/gaussian-16-C.01-3yzt2xlc3n3d45c3wnnzh2wvb3eacy2v/g16/l1.exe PID=    299420.
  
 Copyright (c) 1988-2019, Gaussian, Inc.  All Rights Reserved.
  
 This is part of the Gaussian(R) 16 program.  It is based on
 the Gaussian(R) 09 system (copyright 2009, Gaussian, Inc.),
 the Gaussian(R) 03 system (copyright 2003, Gaussian, Inc.),
 the Gaussian(R) 98 system (copyright 1998, Gaussian, Inc.),
 the Gaussian(R) 94 system (copyright 1995, Gaussian, Inc.),
 the Gaussian 92(TM) system (copyright 1992, Gaussian, Inc.),
 the Gaussian 90(TM) system (copyright 1990, Gaussian, Inc.),
 the Gaussian 88(TM) system (copyright 1988, Gaussian, Inc.),
 the Gaussian 86(TM) system (copyright 1986, Carnegie Mellon
 University), and the Gaussian 82(TM) system (copyright 1983,
 Carnegie Mellon University). Gaussian is a federally registered
 trademark of Gaussian, Inc.
  
 This software contains proprietary and confidential information,
 including trade secrets, belonging to Gaussian, Inc.
  
 This software is provided under written license and may be
 used, copied, transmitted, or stored only in accord with that
 written license.
  
 The following legend is applicable only to US Government
 contracts under FAR:
  
                    RESTRICTED RIGHTS LEGEND
  
 Use, reproduction and disclosure by the US Government is
 subject to restrictions as set forth in subparagraphs (a)
 and (c) of the Commercial Computer Software - Restricted
 Rights clause in FAR 52.227-19.
  
 Gaussian, Inc.
 340 Quinnipiac St., Bldg. 40, Wallingford CT 06492
  
  
 ---------------------------------------------------------------
 Warning -- This program may not be used in any manner that
 competes with the business of Gaussian, Inc. or will provide
 assistance to any competitor of Gaussian, Inc.  The licensee
 of this program is prohibited from giving any competitor of
 Gaussian, Inc. access to this program.  By using this program,
 the user acknowledges that Gaussian, Inc. is engaged in the
 business of creating and licensing software in the field of
 computational chemistry and represents and warrants to the
 licensee that it is not a competitor of Gaussian, Inc. and that
 it will not use this program in any manner prohibited above.
 ---------------------------------------------------------------
  

 Cite this work as:
 Gaussian 16, Revision C.01,
 M. J. Frisch, G. W. Trucks, H. B. Schlegel, G. E. Scuseria, 
 M. A. Robb, J. R. Cheeseman, G. Scalmani, V. Barone, 
 G. A. Petersson, H. Nakatsuji, X. Li, M. Caricato, A. V. Marenich, 
 J. Bloino, B. G. Janesko, R. Gomperts, B. Mennucci, H. P. Hratchian, 
 J. V. Ortiz, A. F. Izmaylov, J. L. Sonnenberg, D. Williams-Young, 
 F. Ding, F. Lipparini, F. Egidi, J. Goings, B. Peng, A. Petrone, 
 T. Henderson, D. Ranasinghe, V. G. Zakrzewski, J. Gao, N. Rega, 
 G. Zheng, W. Liang, M. Hada, M. Ehara, K. Toyota, R. Fukuda, 
 J. Hasegawa, M. Ishida, T. Nakajima, Y. Honda, O. Kitao, H. Nakai, 
 T. Vreven, K. Throssell, J. A. Montgomery, Jr., J. E. Peralta, 
 F. Ogliaro, M. J. Bearpark, J. J. Heyd, E. N. Brothers, K. N. Kudin, 
 V. N. Staroverov, T. A. Keith, R. Kobayashi, J. Normand, 
 K. Raghavachari, A. P. Rendell, J. C. Burant, S. S. Iyengar, 
 J. Tomasi, M. Cossi, J. M. Millam, M. Klene, C. Adamo, R. Cammi, 
 J. W. Ochterski, R. L. Martin, K. Morokuma, O. Farkas, 
 J. B. Foresman, and D. J. Fox, Gaussian, Inc., Wallingford CT, 2019.
 
 ******************************************
 Gaussian 16:  ES64L-G16RevC.01  3-Jul-2019
                 1-May-2026 
 ******************************************
 %nprocshared=32
 Will use up to   32 processors via shared memory.
 %mem=40GB
 %chk=AgAS_A1.chk
 ------------------------------------------------
 # opt b3lyp/6-31+g(d,p) geom=connectivity nosymm
 ------------------------------------------------
 1/18=20,19=15,26=3,38=1,57=2/1,3;
 2/9=110,12=2,15=1,17=6,18=5,40=1/2;
 3/5=1,6=6,7=111,11=2,25=1,30=1,71=1,74=-5/1,2,3;
 4//1;
 5/5=2,38=5/2;
 6/7=2,8=2,9=2,10=2,28=1/1;
 7/30=1/1,2,3,16;
 1/18=20,19=15,26=3/3(2);
 2/9=110,15=1/2;
 99//99;
 2/9=110,15=1/2;
 3/5=1,6=6,7=111,11=2,25=1,30=1,71=1,74=-5/1,2,3;
 4/5=5,16=3,69=1/1;
 5/5=2,38=5/2;
 7/30=1/1,2,3,16;
 1/18=20,19=15,26=3/3(-5);
 2/9=110,15=1/2;
 6/7=2,8=2,9=2,10=2,19=2,28=1/1;
 99/9=1/99;
 -------------------
 Title Card Required
 -------------------
 Symbolic Z-matrix:
 Charge =  1 Multiplicity = 1
 C                     3.58682   0.30768  -1.12996 
 C                     2.34317  -0.41856  -1.67542 
 C                     2.36697  -0.39151  -3.215 
 C                     3.63775  -1.0989   -3.72126 
 C                     4.8814   -0.37267  -3.1758 
 C                     4.8576   -0.39972  -1.63622 
 H                     3.5845    1.32256  -1.46893 
 H                     3.64007  -2.11379  -3.38229 
 H                     3.65429  -1.08011  -4.79097 
 H                     5.76435  -0.86417  -3.52755 
 H                     4.87908   0.64222  -3.51477 
 H                     2.36465   0.62338  -3.55397 
 C                     1.12332  -1.11774  -3.76046 
 C                     1.07239   0.28884  -1.16916 
 C                    -0.17126  -0.43739  -1.71462 
 C                    -0.14746  -0.41034  -3.2542 
 H                    -1.01156  -0.91493  -3.63318 
 H                    -0.14978   0.60455  -3.59317 
 H                     1.07007   1.30373  -1.50813 
 H                     1.05585   0.27005  -0.09945 
 H                    -0.16894  -1.45228  -1.37565 
 H                    -1.05421   0.05411  -1.36287 
 C                     2.34651  -1.87923  -1.18756 
 H                     3.22945  -2.37074  -1.53931 
 H                     2.32997  -1.89803  -0.11785 
 H                     1.48241  -2.38382  -1.56654 
 C                     1.12666  -2.57842  -3.27259 
 H                     1.11012  -2.59721  -2.20289 
 H                     0.26256  -3.083    -3.65158 
 H                     2.0096   -3.06992  -3.62435 
 C                     1.14712  -1.09069  -5.30003 
 H                     0.28302  -1.59528  -5.67902 
 H                     1.1448   -0.0758   -5.639 
 H                     2.03006  -1.58219  -5.65179 
 C                     3.56302   0.28063   0.40962 
 H                     4.42712   0.78522   0.7886 
 H                     2.68008   0.77213   0.76137 
 H                     3.56534  -0.73426   0.74858 
 C                     4.86094  -1.8604   -1.14836 
 H                     3.99685  -2.36499  -1.52735 
 H                     5.74389  -2.3519   -1.50011 
 H                     4.84441  -1.87919  -0.07865 
 

 GradGradGradGradGradGradGradGradGradGradGradGradGradGradGradGradGradGrad
 Berny optimization.
 Initialization pass.
                           ----------------------------
                           !    Initial Parameters    !
                           ! (Angstroms and Degrees)  !
 --------------------------                            --------------------------
 ! Name  Definition              Value          Derivative Info.                !
 --------------------------------------------------------------------------------
 ! R1    R(1,2)                  1.54           estimate D2E/DX2                !
 ! R2    R(1,6)                  1.54           estimate D2E/DX2                !
 ! R3    R(1,7)                  1.07           estimate D2E/DX2                !
 ! R4    R(1,35)                 1.54           estimate D2E/DX2                !
 ! R5    R(2,3)                  1.54           estimate D2E/DX2                !
 ! R6    R(2,14)                 1.54           estimate D2E/DX2                !
 ! R7    R(2,23)                 1.54           estimate D2E/DX2                !
 ! R8    R(3,4)                  1.54           estimate D2E/DX2                !
 ! R9    R(3,12)                 1.07           estimate D2E/DX2                !
 ! R10   R(3,13)                 1.54           estimate D2E/DX2                !
 ! R11   R(4,5)                  1.54           estimate D2E/DX2                !
 ! R12   R(4,8)                  1.07           estimate D2E/DX2                !
 ! R13   R(4,9)                  1.07           estimate D2E/DX2                !
 ! R14   R(5,6)                  1.54           estimate D2E/DX2                !
 ! R15   R(5,10)                 1.07           estimate D2E/DX2                !
 ! R16   R(5,11)                 1.07           estimate D2E/DX2                !
 ! R17   R(6,39)                 1.54           estimate D2E/DX2                !
 ! R18   R(13,16)                1.54           estimate D2E/DX2                !
 ! R19   R(13,27)                1.54           estimate D2E/DX2                !
 ! R20   R(13,31)                1.54           estimate D2E/DX2                !
 ! R21   R(14,15)                1.54           estimate D2E/DX2                !
 ! R22   R(14,19)                1.07           estimate D2E/DX2                !
 ! R23   R(14,20)                1.07           estimate D2E/DX2                !
 ! R24   R(15,16)                1.54           estimate D2E/DX2                !
 ! R25   R(15,21)                1.07           estimate D2E/DX2                !
 ! R26   R(15,22)                1.07           estimate D2E/DX2                !
 ! R27   R(16,17)                1.07           estimate D2E/DX2                !
 ! R28   R(16,18)                1.07           estimate D2E/DX2                !
 ! R29   R(23,24)                1.07           estimate D2E/DX2                !
 ! R30   R(23,25)                1.07           estimate D2E/DX2                !
 ! R31   R(23,26)                1.07           estimate D2E/DX2                !
 ! R32   R(27,28)                1.07           estimate D2E/DX2                !
 ! R33   R(27,29)                1.07           estimate D2E/DX2                !
 ! R34   R(27,30)                1.07           estimate D2E/DX2                !
 ! R35   R(31,32)                1.07           estimate D2E/DX2                !
 ! R36   R(31,33)                1.07           estimate D2E/DX2                !
 ! R37   R(31,34)                1.07           estimate D2E/DX2                !
 ! R38   R(35,36)                1.07           estimate D2E/DX2                !
 ! R39   R(35,37)                1.07           estimate D2E/DX2                !
 ! R40   R(35,38)                1.07           estimate D2E/DX2                !
 ! R41   R(39,40)                1.07           estimate D2E/DX2                !
 ! R42   R(39,41)                1.07           estimate D2E/DX2                !
 ! R43   R(39,42)                1.07           estimate D2E/DX2                !
 ! A1    A(2,1,6)              109.4712         estimate D2E/DX2                !
 ! A2    A(2,1,7)              109.4712         estimate D2E/DX2                !
 ! A3    A(2,1,35)             109.4712         estimate D2E/DX2                !
 ! A4    A(6,1,7)              109.4712         estimate D2E/DX2                !
 ! A5    A(6,1,35)             109.4712         estimate D2E/DX2                !
 ! A6    A(7,1,35)             109.4712         estimate D2E/DX2                !
 ! A7    A(1,2,3)              109.4712         estimate D2E/DX2                !
 ! A8    A(1,2,14)             109.4712         estimate D2E/DX2                !
 ! A9    A(1,2,23)             109.4712         estimate D2E/DX2                !
 ! A10   A(3,2,14)             109.4712         estimate D2E/DX2                !
 ! A11   A(3,2,23)             109.4712         estimate D2E/DX2                !
 ! A12   A(14,2,23)            109.4712         estimate D2E/DX2                !
 ! A13   A(2,3,4)              109.4712         estimate D2E/DX2                !
 ! A14   A(2,3,12)             109.4712         estimate D2E/DX2                !
 ! A15   A(2,3,13)             109.4712         estimate D2E/DX2                !
 ! A16   A(4,3,12)             109.4712         estimate D2E/DX2                !
 ! A17   A(4,3,13)             109.4712         estimate D2E/DX2                !
 ! A18   A(12,3,13)            109.4712         estimate D2E/DX2                !
 ! A19   A(3,4,5)              109.4712         estimate D2E/DX2                !
 ! A20   A(3,4,8)              109.4712         estimate D2E/DX2                !
 ! A21   A(3,4,9)              109.4712         estimate D2E/DX2                !
 ! A22   A(5,4,8)              109.4712         estimate D2E/DX2                !
 ! A23   A(5,4,9)              109.4712         estimate D2E/DX2                !
 ! A24   A(8,4,9)              109.4712         estimate D2E/DX2                !
 ! A25   A(4,5,6)              109.4712         estimate D2E/DX2                !
 ! A26   A(4,5,10)             109.4712         estimate D2E/DX2                !
 ! A27   A(4,5,11)             109.4712         estimate D2E/DX2                !
 ! A28   A(6,5,10)             109.4712         estimate D2E/DX2                !
 ! A29   A(6,5,11)             109.4712         estimate D2E/DX2                !
 ! A30   A(10,5,11)            109.4712         estimate D2E/DX2                !
 ! A31   A(1,6,5)              109.4712         estimate D2E/DX2                !
 ! A32   A(1,6,39)             109.4712         estimate D2E/DX2                !
 ! A33   A(5,6,39)             109.4712         estimate D2E/DX2                !
 ! A34   A(3,13,16)            109.4712         estimate D2E/DX2                !
 ! A35   A(3,13,27)            109.4712         estimate D2E/DX2                !
 ! A36   A(3,13,31)            109.4712         estimate D2E/DX2                !
 ! A37   A(16,13,27)           109.4712         estimate D2E/DX2                !
 ! A38   A(16,13,31)           109.4712         estimate D2E/DX2                !
 ! A39   A(27,13,31)           109.4712         estimate D2E/DX2                !
 ! A40   A(2,14,15)            109.4712         estimate D2E/DX2                !
 ! A41   A(2,14,19)            109.4712         estimate D2E/DX2                !
 ! A42   A(2,14,20)            109.4712         estimate D2E/DX2                !
 ! A43   A(15,14,19)           109.4712         estimate D2E/DX2                !
 ! A44   A(15,14,20)           109.4712         estimate D2E/DX2                !
 ! A45   A(19,14,20)           109.4712         estimate D2E/DX2                !
 ! A46   A(14,15,16)           109.4712         estimate D2E/DX2                !
 ! A47   A(14,15,21)           109.4712         estimate D2E/DX2                !
 ! A48   A(14,15,22)           109.4712         estimate D2E/DX2                !
 ! A49   A(16,15,21)           109.4712         estimate D2E/DX2                !
 ! A50   A(16,15,22)           109.4712         estimate D2E/DX2                !
 ! A51   A(21,15,22)           109.4712         estimate D2E/DX2                !
 ! A52   A(13,16,15)           109.4712         estimate D2E/DX2                !
 ! A53   A(13,16,17)           109.4712         estimate D2E/DX2                !
 ! A54   A(13,16,18)           109.4712         estimate D2E/DX2                !
 ! A55   A(15,16,17)           109.4712         estimate D2E/DX2                !
 ! A56   A(15,16,18)           109.4712         estimate D2E/DX2                !
 ! A57   A(17,16,18)           109.4712         estimate D2E/DX2                !
 ! A58   A(2,23,24)            109.4712         estimate D2E/DX2                !
 ! A59   A(2,23,25)            109.4712         estimate D2E/DX2                !
 ! A60   A(2,23,26)            109.4712         estimate D2E/DX2                !
 ! A61   A(24,23,25)           109.4712         estimate D2E/DX2                !
 ! A62   A(24,23,26)           109.4712         estimate D2E/DX2                !
 ! A63   A(25,23,26)           109.4712         estimate D2E/DX2                !
 ! A64   A(13,27,28)           109.4712         estimate D2E/DX2                !
 ! A65   A(13,27,29)           109.4712         estimate D2E/DX2                !
 ! A66   A(13,27,30)           109.4712         estimate D2E/DX2                !
 ! A67   A(28,27,29)           109.4712         estimate D2E/DX2                !
 ! A68   A(28,27,30)           109.4712         estimate D2E/DX2                !
 ! A69   A(29,27,30)           109.4712         estimate D2E/DX2                !
 ! A70   A(13,31,32)           109.4712         estimate D2E/DX2                !
 ! A71   A(13,31,33)           109.4712         estimate D2E/DX2                !
 ! A72   A(13,31,34)           109.4712         estimate D2E/DX2                !
 ! A73   A(32,31,33)           109.4712         estimate D2E/DX2                !
 ! A74   A(32,31,34)           109.4712         estimate D2E/DX2                !
 ! A75   A(33,31,34)           109.4712         estimate D2E/DX2                !
 ! A76   A(1,35,36)            109.4712         estimate D2E/DX2                !
 ! A77   A(1,35,37)            109.4712         estimate D2E/DX2                !
 ! A78   A(1,35,38)            109.4712         estimate D2E/DX2                !
 ! A79   A(36,35,37)           109.4712         estimate D2E/DX2                !
 ! A80   A(36,35,38)           109.4712         estimate D2E/DX2                !
 ! A81   A(37,35,38)           109.4712         estimate D2E/DX2                !
 ! A82   A(6,39,40)            109.4712         estimate D2E/DX2                !
 ! A83   A(6,39,41)            109.4712         estimate D2E/DX2                !
 ! A84   A(6,39,42)            109.4712         estimate D2E/DX2                !
 ! A85   A(40,39,41)           109.4712         estimate D2E/DX2                !
 ! A86   A(40,39,42)           109.4712         estimate D2E/DX2                !
 ! A87   A(41,39,42)           109.4712         estimate D2E/DX2                !
 ! D1    D(6,1,2,3)            -60.0            estimate D2E/DX2                !
 ! D2    D(6,1,2,14)           180.0            estimate D2E/DX2                !
 ! D3    D(6,1,2,23)            60.0            estimate D2E/DX2                !
 ! D4    D(7,1,2,3)             60.0            estimate D2E/DX2                !
 ! D5    D(7,1,2,14)           -60.0            estimate D2E/DX2                !
 ! D6    D(7,1,2,23)           180.0            estimate D2E/DX2                !
 ! D7    D(35,1,2,3)           180.0            estimate D2E/DX2                !
 ! D8    D(35,1,2,14)           60.0            estimate D2E/DX2                !
 ! D9    D(35,1,2,23)          -60.0            estimate D2E/DX2                !
 ! D10   D(2,1,6,5)             60.0            estimate D2E/DX2                !
 ! D11   D(2,1,6,39)           -60.0            estimate D2E/DX2                !
 ! D12   D(7,1,6,5)            -60.0            estimate D2E/DX2                !
 ! D13   D(7,1,6,39)           180.0            estimate D2E/DX2                !
 ! D14   D(35,1,6,5)           180.0            estimate D2E/DX2                !
 ! D15   D(35,1,6,39)           60.0            estimate D2E/DX2                !
 ! D16   D(2,1,35,36)          180.0            estimate D2E/DX2                !
 ! D17   D(2,1,35,37)          -60.0            estimate D2E/DX2                !
 ! D18   D(2,1,35,38)           60.0            estimate D2E/DX2                !
 ! D19   D(6,1,35,36)           60.0            estimate D2E/DX2                !
 ! D20   D(6,1,35,37)          180.0            estimate D2E/DX2                !
 ! D21   D(6,1,35,38)          -60.0            estimate D2E/DX2                !
 ! D22   D(7,1,35,36)          -60.0            estimate D2E/DX2                !
 ! D23   D(7,1,35,37)           60.0            estimate D2E/DX2                !
 ! D24   D(7,1,35,38)          180.0            estimate D2E/DX2                !
 ! D25   D(1,2,3,4)             60.0            estimate D2E/DX2                !
 ! D26   D(1,2,3,12)           -60.0            estimate D2E/DX2                !
 ! D27   D(1,2,3,13)           180.0            estimate D2E/DX2                !
 ! D28   D(14,2,3,4)           180.0            estimate D2E/DX2                !
 ! D29   D(14,2,3,12)           60.0            estimate D2E/DX2                !
 ! D30   D(14,2,3,13)          -60.0            estimate D2E/DX2                !
 ! D31   D(23,2,3,4)           -60.0            estimate D2E/DX2                !
 ! D32   D(23,2,3,12)         -180.0            estimate D2E/DX2                !
 ! D33   D(23,2,3,13)           60.0            estimate D2E/DX2                !
 ! D34   D(1,2,14,15)          180.0            estimate D2E/DX2                !
 ! D35   D(1,2,14,19)           60.0            estimate D2E/DX2                !
 ! D36   D(1,2,14,20)          -60.0            estimate D2E/DX2                !
 ! D37   D(3,2,14,15)           60.0            estimate D2E/DX2                !
 ! D38   D(3,2,14,19)          -60.0            estimate D2E/DX2                !
 ! D39   D(3,2,14,20)          180.0            estimate D2E/DX2                !
 ! D40   D(23,2,14,15)         -60.0            estimate D2E/DX2                !
 ! D41   D(23,2,14,19)         180.0            estimate D2E/DX2                !
 ! D42   D(23,2,14,20)          60.0            estimate D2E/DX2                !
 ! D43   D(1,2,23,24)          -60.0            estimate D2E/DX2                !
 ! D44   D(1,2,23,25)           60.0            estimate D2E/DX2                !
 ! D45   D(1,2,23,26)          180.0            estimate D2E/DX2                !
 ! D46   D(3,2,23,24)           60.0            estimate D2E/DX2                !
 ! D47   D(3,2,23,25)          180.0            estimate D2E/DX2                !
 ! D48   D(3,2,23,26)          -60.0            estimate D2E/DX2                !
 ! D49   D(14,2,23,24)         180.0            estimate D2E/DX2                !
 ! D50   D(14,2,23,25)         -60.0            estimate D2E/DX2                !
 ! D51   D(14,2,23,26)          60.0            estimate D2E/DX2                !
 ! D52   D(2,3,4,5)            -60.0            estimate D2E/DX2                !
 ! D53   D(2,3,4,8)             60.0            estimate D2E/DX2                !
 ! D54   D(2,3,4,9)            180.0            estimate D2E/DX2                !
 ! D55   D(12,3,4,5)            60.0            estimate D2E/DX2                !
 ! D56   D(12,3,4,8)           180.0            estimate D2E/DX2                !
 ! D57   D(12,3,4,9)           -60.0            estimate D2E/DX2                !
 ! D58   D(13,3,4,5)           180.0            estimate D2E/DX2                !
 ! D59   D(13,3,4,8)           -60.0            estimate D2E/DX2                !
 ! D60   D(13,3,4,9)            60.0            estimate D2E/DX2                !
 ! D61   D(2,3,13,16)           60.0            estimate D2E/DX2                !
 ! D62   D(2,3,13,27)          -60.0            estimate D2E/DX2                !
 ! D63   D(2,3,13,31)          180.0            estimate D2E/DX2                !
 ! D64   D(4,3,13,16)          180.0            estimate D2E/DX2                !
 ! D65   D(4,3,13,27)           60.0            estimate D2E/DX2                !
 ! D66   D(4,3,13,31)          -60.0            estimate D2E/DX2                !
 ! D67   D(12,3,13,16)         -60.0            estimate D2E/DX2                !
 ! D68   D(12,3,13,27)         180.0            estimate D2E/DX2                !
 ! D69   D(12,3,13,31)          60.0            estimate D2E/DX2                !
 ! D70   D(3,4,5,6)             60.0            estimate D2E/DX2                !
 ! D71   D(3,4,5,10)           180.0            estimate D2E/DX2                !
 ! D72   D(3,4,5,11)           -60.0            estimate D2E/DX2                !
 ! D73   D(8,4,5,6)            -60.0            estimate D2E/DX2                !
 ! D74   D(8,4,5,10)            60.0            estimate D2E/DX2                !
 ! D75   D(8,4,5,11)           180.0            estimate D2E/DX2                !
 ! D76   D(9,4,5,6)           -180.0            estimate D2E/DX2                !
 ! D77   D(9,4,5,10)           -60.0            estimate D2E/DX2                !
 ! D78   D(9,4,5,11)            60.0            estimate D2E/DX2                !
 ! D79   D(4,5,6,1)            -60.0            estimate D2E/DX2                !
 ! D80   D(4,5,6,39)            60.0            estimate D2E/DX2                !
 ! D81   D(10,5,6,1)           180.0            estimate D2E/DX2                !
 ! D82   D(10,5,6,39)          -60.0            estimate D2E/DX2                !
 ! D83   D(11,5,6,1)            60.0            estimate D2E/DX2                !
 ! D84   D(11,5,6,39)          180.0            estimate D2E/DX2                !
 ! D85   D(1,6,39,40)           60.0            estimate D2E/DX2                !
 ! D86   D(1,6,39,41)          180.0            estimate D2E/DX2                !
 ! D87   D(1,6,39,42)          -60.0            estimate D2E/DX2                !
 ! D88   D(5,6,39,40)          -60.0            estimate D2E/DX2                !
 ! D89   D(5,6,39,41)           60.0            estimate D2E/DX2                !
 ! D90   D(5,6,39,42)          180.0            estimate D2E/DX2                !
 ! D91   D(3,13,16,15)         -60.0            estimate D2E/DX2                !
 ! D92   D(3,13,16,17)        -180.0            estimate D2E/DX2                !
 ! D93   D(3,13,16,18)          60.0            estimate D2E/DX2                !
 ! D94   D(27,13,16,15)         60.0            estimate D2E/DX2                !
 ! D95   D(27,13,16,17)        -60.0            estimate D2E/DX2                !
 ! D96   D(27,13,16,18)        180.0            estimate D2E/DX2                !
 ! D97   D(31,13,16,15)       -180.0            estimate D2E/DX2                !
 ! D98   D(31,13,16,17)         60.0            estimate D2E/DX2                !
 ! D99   D(31,13,16,18)        -60.0            estimate D2E/DX2                !
 ! D100  D(3,13,27,28)          60.0            estimate D2E/DX2                !
 ! D101  D(3,13,27,29)         180.0            estimate D2E/DX2                !
 ! D102  D(3,13,27,30)         -60.0            estimate D2E/DX2                !
 ! D103  D(16,13,27,28)        -60.0            estimate D2E/DX2                !
 ! D104  D(16,13,27,29)         60.0            estimate D2E/DX2                !
 ! D105  D(16,13,27,30)        180.0            estimate D2E/DX2                !
 ! D106  D(31,13,27,28)        180.0            estimate D2E/DX2                !
 ! D107  D(31,13,27,29)        -60.0            estimate D2E/DX2                !
 ! D108  D(31,13,27,30)         60.0            estimate D2E/DX2                !
 ! D109  D(3,13,31,32)        -180.0            estimate D2E/DX2                !
 ! D110  D(3,13,31,33)         -60.0            estimate D2E/DX2                !
 ! D111  D(3,13,31,34)          60.0            estimate D2E/DX2                !
 ! D112  D(16,13,31,32)        -60.0            estimate D2E/DX2                !
 ! D113  D(16,13,31,33)         60.0            estimate D2E/DX2                !
 ! D114  D(16,13,31,34)        180.0            estimate D2E/DX2                !
 ! D115  D(27,13,31,32)         60.0            estimate D2E/DX2                !
 ! D116  D(27,13,31,33)        180.0            estimate D2E/DX2                !
 ! D117  D(27,13,31,34)        -60.0            estimate D2E/DX2                !
 ! D118  D(2,14,15,16)         -60.0            estimate D2E/DX2                !
 ! D119  D(2,14,15,21)          60.0            estimate D2E/DX2                !
 ! D120  D(2,14,15,22)         180.0            estimate D2E/DX2                !
 ! D121  D(19,14,15,16)         60.0            estimate D2E/DX2                !
 ! D122  D(19,14,15,21)        180.0            estimate D2E/DX2                !
 ! D123  D(19,14,15,22)        -60.0            estimate D2E/DX2                !
 ! D124  D(20,14,15,16)        180.0            estimate D2E/DX2                !
 ! D125  D(20,14,15,21)        -60.0            estimate D2E/DX2                !
 ! D126  D(20,14,15,22)         60.0            estimate D2E/DX2                !
 ! D127  D(14,15,16,13)         60.0            estimate D2E/DX2                !
 ! D128  D(14,15,16,17)        180.0            estimate D2E/DX2                !
 ! D129  D(14,15,16,18)        -60.0            estimate D2E/DX2                !
 ! D130  D(21,15,16,13)        -60.0            estimate D2E/DX2                !
 ! D131  D(21,15,16,17)         60.0            estimate D2E/DX2                !
 ! D132  D(21,15,16,18)        180.0            estimate D2E/DX2                !
 ! D133  D(22,15,16,13)        180.0            estimate D2E/DX2                !
 ! D134  D(22,15,16,17)        -60.0            estimate D2E/DX2                !
 ! D135  D(22,15,16,18)         60.0            estimate D2E/DX2                !
 --------------------------------------------------------------------------------
 Trust Radius=3.00D-01 FncErr=1.00D-07 GrdErr=1.00D-06 EigMax=2.50D+02 EigMin=1.00D-04
 Number of steps in this run=    252 maximum allowed number of steps=    252.
 GradGradGradGradGradGradGradGradGradGradGradGradGradGradGradGradGradGrad

                          Input orientation:                          
 ---------------------------------------------------------------------
 Center     Atomic      Atomic             Coordinates (Angstroms)
 Number     Number       Type             X           Y           Z
 ---------------------------------------------------------------------
      1          6           0        3.586821    0.307676   -1.129963
      2          6           0        2.343171   -0.418555   -1.675420
      3          6           0        2.366969   -0.391506   -3.214998
      4          6           0        3.637753   -1.098902   -3.721258
      5          6           0        4.881403   -0.372671   -3.175801
      6          6           0        4.857605   -0.399720   -1.636222
      7          1           0        3.584503    1.322563   -1.468932
      8          1           0        3.640071   -2.113789   -3.382289
      9          1           0        3.654288   -1.080108   -4.790965
     10          1           0        5.764350   -0.864174   -3.527553
     11          1           0        4.879085    0.642216   -3.514770
     12          1           0        2.364651    0.623381   -3.553968
     13          6           0        1.123320   -1.117737   -3.760455
     14          6           0        1.072388    0.288841   -1.169160
     15          6           0       -0.171262   -0.437391   -1.714617
     16          6           0       -0.147464   -0.410341   -3.254196
     17          1           0       -1.011558   -0.914930   -3.633182
     18          1           0       -0.149782    0.604546   -3.593165
     19          1           0        1.070069    1.303728   -1.508130
     20          1           0        1.055853    0.270047   -0.099453
     21          1           0       -0.168944   -1.452277   -1.375648
     22          1           0       -1.054209    0.054112   -1.362866
     23          6           0        2.346508   -1.879233   -1.187558
     24          1           0        3.229455   -2.370736   -1.539310
     25          1           0        2.329973   -1.898027   -0.117851
     26          1           0        1.482413   -2.383823   -1.566544
     27          6           0        1.126656   -2.578415   -3.272593
     28          1           0        1.110121   -2.597209   -2.202886
     29          1           0        0.262562   -3.083005   -3.651580
     30          1           0        2.009603   -3.069918   -3.624345
     31          6           0        1.147117   -1.090688   -5.300034
     32          1           0        0.283023   -1.595277   -5.679020
     33          1           0        1.144799   -0.075801   -5.639003
     34          1           0        2.030065   -1.582191   -5.651786
     35          6           0        3.563023    0.280626    0.409616
     36          1           0        4.427117    0.785216    0.788602
     37          1           0        2.680076    0.772129    0.761367
     38          1           0        3.565341   -0.734260    0.748585
     39          6           0        4.860941   -1.860398   -1.148360
     40          1           0        3.996847   -2.364988   -1.527347
     41          1           0        5.743888   -2.351901   -1.500112
     42          1           0        4.844406   -1.879192   -0.078653
 ---------------------------------------------------------------------
                    Distance matrix (angstroms):
                    1          2          3          4          5
     1  C    0.000000
     2  C    1.540000   0.000000
     3  C    2.514809   1.540000   0.000000
     4  C    2.948875   2.514809   1.540000   0.000000
     5  C    2.514809   2.948875   2.514809   1.540000   0.000000
     6  C    1.540000   2.514809   2.948875   2.514809   1.540000
     7  H    1.070000   2.148263   2.732978   3.307461   2.732978
     8  H    3.307461   2.732978   2.148263   1.070000   2.148263
     9  H    3.915793   3.444314   2.148263   1.070000   2.148263
    10  H    3.444314   3.915793   3.444314   2.148263   1.070000
    11  H    2.732978   3.307461   2.732978   2.148263   1.070000
    12  H    2.732978   2.148263   1.070000   2.148263   2.732978
    13  C    3.875582   2.514809   1.540000   2.514809   3.875582
    14  C    2.514809   1.540000   2.514809   3.875582   4.355778
    15  C    3.875582   2.514809   2.948875   4.355778   5.260101
    16  C    4.355778   2.948875   2.514809   3.875582   5.029619
    17  H    5.376427   3.915793   3.444314   4.653783   5.935506
    18  H    4.485276   3.307461   2.732978   4.154945   5.142175
    19  H    2.732978   2.148263   2.732978   4.154945   4.485276
    20  H    2.732978   2.148263   3.444314   4.653783   4.950943
    21  H    4.154945   2.732978   3.307461   4.485276   5.469196
    22  H    4.653783   3.444314   3.915793   5.376427   6.220962
    23  C    2.514809   1.540000   2.514809   2.948875   3.556478
    24  H    2.732978   2.148263   2.732978   2.558352   3.065828
    25  H    2.732978   2.148263   3.444314   3.915793   4.264688
    26  H    3.444314   2.148263   2.732978   3.307461   4.264688
    27  C    4.355778   2.948875   2.514809   2.948875   4.355778
    28  H    3.965295   2.558352   2.732978   3.307461   4.485276
    29  H    5.376427   3.915793   3.444314   3.915793   5.376427
    30  H    4.485276   3.307461   2.732978   2.558352   3.965295
    31  C    5.029619   3.875582   2.514809   2.948875   4.355778
    32  H    5.935506   4.653783   3.444314   3.915793   5.376427
    33  H    5.142175   4.154945   2.732978   3.307461   4.485276
    34  H    5.142175   4.154945   2.732978   2.558352   3.965295
    35  C    1.540000   2.514809   3.875582   4.355778   3.875582
    36  H    2.148263   3.444314   4.653783   4.950943   4.154945
    37  H    2.148263   2.732978   4.154945   4.950943   4.653783
    38  H    2.148263   2.732978   4.154945   4.485276   4.154945
    39  C    2.514809   2.948876   3.556478   2.948875   2.514809
    40  H    2.732978   2.558352   3.065828   2.558352   2.732978
    41  H    3.444314   3.915793   4.264688   3.307461   2.732978
    42  H    2.732978   3.307461   4.264688   3.915793   3.444314
                    6          7          8          9         10
     6  C    0.000000
     7  H    2.148263   0.000000
     8  H    2.732978   3.933514   0.000000
     9  H    3.444314   4.100439   1.747303   0.000000
    10  H    2.148263   3.710993   2.468846   2.468846   0.000000
    11  H    2.148263   2.514809   3.024610   2.468846   1.747303
    12  H    3.307461   2.514809   3.024610   2.468846   3.710993
    13  C    4.355778   4.154945   2.732978   2.732978   4.653783
    14  C    3.875582   2.732978   4.154945   4.653783   5.376427
    15  C    5.029619   4.154945   4.485276   4.950943   6.220962
    16  C    5.260101   4.485276   4.154945   4.154945   5.935506
    17  H    6.220962   5.551048   4.810184   4.810184   6.776922
    18  H    5.469196   4.355778   4.668704   4.329403   6.094128
    19  H    4.154945   2.514809   4.668704   4.810184   5.551048
    20  H    4.154945   3.062243   4.810184   5.530377   5.933655
    21  H    5.142175   4.668704   4.355778   5.140039   6.338812
    22  H    5.935506   4.810184   5.551048   5.933655   7.212619
    23  C    2.948875   3.444314   2.558352   3.915793   4.264688
    24  H    2.558352   3.710993   1.905571   3.524126   3.556478
    25  H    3.307461   3.710993   3.524126   4.925525   4.948724
    26  H    3.915793   4.262112   2.832902   4.100439   4.948724
    27  C    4.620000   4.950943   2.558352   3.307461   4.950943
    28  H    4.381062   4.693172   2.832902   3.933514   5.140039
    29  H    5.690000   5.933655   3.524126   4.100439   5.933655
    30  H    4.381062   5.140039   1.905571   2.832902   4.355778
    31  C    5.260101   5.142175   3.307461   2.558352   4.950943
    32  H    6.220962   6.094128   4.100439   3.524126   5.933655
    33  H    5.469196   5.029619   3.933514   2.832902   5.140039
    34  H    5.051531   5.324484   2.832902   1.905571   4.355778
    35  C    2.514809   2.148263   4.485276   5.376427   4.653783
    36  H    2.732978   2.468846   5.140039   5.933655   4.810184
    37  H    3.444314   2.468846   5.140039   5.933655   5.530377
    38  H    2.732978   3.024610   4.355778   5.551048   4.810184
    39  C    1.540000   3.444314   2.558352   3.915793   2.732978
    40  H    2.148263   3.710993   1.905571   3.524126   3.062243
    41  H    2.148263   4.262112   2.832902   4.100439   2.514809
    42  H    2.148263   3.710993   3.524126   4.925525   3.710993
                   11         12         13         14         15
    11  H    0.000000
    12  H    2.514809   0.000000
    13  C    4.154945   2.148263   0.000000
    14  C    4.485276   2.732978   2.948875   0.000000
    15  C    5.469196   3.307461   2.514809   1.540000   0.000000
    16  C    5.142175   2.732978   1.540000   2.514809   1.540000
    17  H    6.094128   3.710993   2.148263   3.444314   2.148263
    18  H    5.029619   2.514809   2.148263   2.732978   2.148263
    19  H    4.355778   2.514809   3.307461   1.070000   2.148263
    20  H    5.140039   3.710993   3.915793   1.070000   2.148263
    21  H    5.869015   3.933514   2.732978   2.148263   1.070000
    22  H    6.338812   4.100439   3.444314   2.148263   1.070000
    23  C    4.264688   3.444314   2.948875   2.514809   2.948875
    24  H    3.962524   3.710993   3.307461   3.444314   3.915793
    25  H    4.948724   4.262112   3.915793   2.732978   3.307461
    26  H    4.948724   3.710993   2.558352   2.732978   2.558352
    27  C    4.950943   3.444314   1.540000   3.556478   2.948875
    28  H    5.140039   3.710993   2.148263   3.065828   2.558352
    29  H    5.933655   4.262112   2.148263   4.264688   3.307461
    30  H    4.693172   3.710993   2.148263   4.264688   3.915793
    31  C    4.485276   2.732978   1.540000   4.355778   3.875582
    32  H    5.551048   3.710993   2.148263   4.950943   4.154945
    33  H    4.355778   2.514809   2.148263   4.485276   4.154945
    34  H    4.199016   3.062243   2.148263   4.950943   4.653783
    35  C    4.154945   4.154945   5.029619   2.948875   4.355778
    36  H    4.329403   4.810184   5.935506   3.915793   5.376427
    37  H    4.810184   4.329403   5.142175   2.558352   3.965295
    38  H    4.668704   4.668704   5.142175   3.307461   4.485276
    39  C    3.444314   4.264688   4.620000   4.355778   5.260101
    40  H    3.710993   3.962524   3.847020   3.965295   4.596067
    41  H    3.710993   4.948724   5.289798   5.376427   6.220962
    42  H    4.262112   4.948724   5.289798   4.485276   5.469196
                   16         17         18         19         20
    16  C    0.000000
    17  H    1.070000   0.000000
    18  H    1.070000   1.747303   0.000000
    19  H    2.732978   3.710993   2.514809   0.000000
    20  H    3.444314   4.262112   3.710993   1.747303   0.000000
    21  H    2.148263   2.468846   3.024610   3.024610   2.468846
    22  H    2.148263   2.468846   2.468846   2.468846   2.468846
    23  C    3.556478   4.264688   4.264688   3.444314   2.732978
    24  H    4.264688   4.948724   4.948724   4.262112   3.710993
    25  H    4.264688   4.948724   4.948724   3.710993   2.514809
    26  H    3.065828   3.556478   3.962524   3.710993   3.062243
    27  C    2.514809   2.732978   3.444314   4.264688   4.264688
    28  H    2.732978   3.062243   3.710993   3.962524   3.556478
    29  H    2.732978   2.514809   3.710993   4.948724   4.948724
    30  H    3.444314   3.710993   4.262112   4.948724   4.948724
    31  C    2.514809   2.732978   2.732978   4.485276   5.376427
    32  H    2.732978   2.514809   3.062243   5.140039   5.933655
    33  H    2.732978   3.062243   2.514809   4.355778   5.551048
    34  H    3.444314   3.710993   3.710993   5.140039   5.933655
    35  C    5.260101   6.220962   5.469196   3.307461   2.558352
    36  H    6.220962   7.212619   6.338812   4.100439   3.524126
    37  H    5.051531   5.982174   5.195973   2.832902   1.905571
    38  H    5.469196   6.338812   5.869015   3.933514   2.832902
    39  C    5.623285   6.446278   6.095930   4.950943   4.485276
    40  H    4.896730   5.623285   5.502751   4.693172   4.199016
    41  H    6.446278   7.228481   6.917861   5.933655   5.551048
    42  H    6.095930   6.917861   6.592622   5.140039   4.355778
                   21         22         23         24         25
    21  H    0.000000
    22  H    1.747303   0.000000
    23  C    2.558352   3.915793   0.000000
    24  H    3.524126   4.925525   1.070000   0.000000
    25  H    2.832902   4.100439   1.070000   1.747303   0.000000
    26  H    1.905571   3.524126   1.070000   1.747303   1.747303
    27  C    2.558352   3.915793   2.514809   2.732978   3.444314
    28  H    1.905571   3.524126   1.753577   2.232308   2.514809
    29  H    2.832902   4.100439   3.444314   3.710993   4.262112
    30  H    3.524126   4.925525   2.732978   2.514809   3.710993
    31  C    4.154945   4.653783   4.355778   4.485276   5.376427
    32  H    4.329403   4.810184   4.950943   5.140039   5.933655
    33  H    4.668704   4.810184   4.950943   5.140039   5.933655
    34  H    4.810184   5.530377   4.485276   4.355778   5.551048
    35  C    4.485276   4.950943   2.948875   3.307461   2.558352
    36  H    5.551048   5.933655   3.915793   4.100439   3.524126
    37  H    4.199016   4.355778   3.307461   3.933514   2.832902
    38  H    4.355778   5.140039   2.558352   2.832902   1.905571
    39  C    5.051531   6.220962   2.514809   1.753577   2.732978
    40  H    4.267302   5.602880   1.753577   0.767507   2.232308
    41  H    5.982174   7.212619   3.444314   2.514809   3.710993
    42  H    5.195973   6.338812   2.732978   2.232308   2.514809
                   26         27         28         29         30
    26  H    0.000000
    27  C    1.753577   0.000000
    28  H    0.767507   1.070000   0.000000
    29  H    2.514809   1.070000   1.747303   0.000000
    30  H    2.232308   1.070000   1.747303   1.747303   0.000000
    31  C    3.965295   2.514809   3.444314   2.732978   2.732978
    32  H    4.355778   2.732978   3.710993   2.514809   3.062243
    33  H    4.693172   3.444314   4.262112   3.710993   3.710993
    34  H    4.199016   2.732978   3.710993   3.062243   2.514809
    35  C    3.915793   5.260101   4.596067   6.220962   5.469196
    36  H    4.925525   6.220962   5.602880   7.212619   6.338812
    37  H    4.100439   5.469196   4.754366   6.338812   5.869015
    38  H    3.524126   5.051531   4.267302   5.982174   5.195973
    39  C    3.444314   4.355778   3.965295   5.376427   3.965295
    40  H    2.514809   3.365922   2.973797   4.355778   2.973797
    41  H    4.262112   4.950943   4.693172   5.933655   4.355778
    42  H    3.710993   4.950943   4.355778   5.933655   4.693172
                   31         32         33         34         35
    31  C    0.000000
    32  H    1.070000   0.000000
    33  H    1.070000   1.747303   0.000000
    34  H    1.070000   1.747303   1.747303   0.000000
    35  C    6.349583   7.165815   6.523851   6.523851   0.000000
    36  H    7.165815   8.041791   7.268361   7.268361   1.070000
    37  H    6.523851   7.268361   6.636324   6.862497   1.070000
    38  H    6.523851   7.268361   6.862497   6.636324   1.070000
    39  C    5.623285   6.446278   6.095930   5.326547   2.948875
    40  H    4.896730   5.623285   5.502751   4.635947   3.307461
    41  H    6.095930   6.917861   6.592622   5.623285   3.915793
    42  H    6.446278   7.228481   6.917861   6.250483   2.558352
                   36         37         38         39         40
    36  H    0.000000
    37  H    1.747303   0.000000
    38  H    1.747303   1.747303   0.000000
    39  C    3.307461   3.915793   2.558352   0.000000
    40  H    3.933514   4.100439   2.832902   1.070000   0.000000
    41  H    4.100439   4.925525   3.524126   1.070000   1.747303
    42  H    2.832902   3.524126   1.905571   1.070000   1.747303
                   41         42
    41  H    0.000000
    42  H    1.747303   0.000000
 Symmetry turned off by external request.
 Stoichiometry    C15H27(1+)
 Framework group  C1[X(C15H27)]
 Deg. of freedom   120
 Full point group                 C1      NOp   1
 Rotational constants (GHZ):           0.9511061           0.5824723           0.4592971
 Standard basis: 6-31+G(d,p) (6D, 7F)
   420 basis functions,   669 primitive gaussians,   420 cartesian basis functions
    58 alpha electrons       58 beta electrons
       nuclear repulsion energy      1197.4769784782 Hartrees.
 NAtoms=   42 NActive=   42 NUniq=   42 SFac= 1.00D+00 NAtFMM=   60 NAOKFM=F Big=F
 Integral buffers will be    131072 words long.
 Raffenetti 2 integral format.
 Two-electron integral symmetry is turned off.
 One-electron integrals computed using PRISM.
 NBasis=   420 RedAO= T EigKep=  2.05D-06  NBF=   420
 NBsUse=   420 1.00D-06 EigRej= -1.00D+00 NBFU=   420
 ExpMin= 4.38D-02 ExpMax= 3.05D+03 ExpMxC= 4.57D+02 IAcc=3 IRadAn=         5 AccDes= 0.00D+00
 Harris functional with IExCor=  402 and IRadAn=       5 diagonalized for initial guess.
 HarFok:  IExCor=  402 AccDes= 0.00D+00 IRadAn=         5 IDoV= 1 UseB2=F ITyADJ=14
 ICtDFT=  3500011 ScaDFX=  1.000000  1.000000  1.000000  1.000000
 FoFCou: FMM=F IPFlag=           0 FMFlag=      100000 FMFlg1=           0
         NFxFlg=           0 DoJE=T BraDBF=F KetDBF=T FulRan=T
         wScrn=  0.000000 ICntrl=       500 IOpCl=  0 I1Cent=   200000004 NGrid=           0
         NMat0=    1 NMatS0=      1 NMatT0=    0 NMatD0=    1 NMtDS0=    0 NMtDT0=    0
 Symmetry not used in FoFCou.
 Requested convergence on RMS density matrix=1.00D-08 within 128 cycles.
 Requested convergence on MAX density matrix=1.00D-06.
 Requested convergence on             energy=1.00D-06.
 No special actions if energy rises.
 SCF Done:  E(RB3LYP) =  -587.339244607     A.U. after   18 cycles
            NFock= 18  Conv=0.46D-08     -V/T= 2.0061

 **********************************************************************

            Population analysis using the SCF Density.

 **********************************************************************

 Alpha  occ. eigenvalues --  -10.44105 -10.37137 -10.36817 -10.35526 -10.34821
 Alpha  occ. eigenvalues --  -10.34600 -10.33277 -10.32849 -10.32674 -10.31694
 Alpha  occ. eigenvalues --  -10.31422 -10.30814 -10.29774 -10.29005 -10.28626
 Alpha  occ. eigenvalues --   -1.05651  -0.99162  -0.95859  -0.94560  -0.91287
 Alpha  occ. eigenvalues --   -0.90324  -0.87283  -0.83594  -0.81712  -0.81531
 Alpha  occ. eigenvalues --   -0.76991  -0.75143  -0.72577  -0.70723  -0.70425
 Alpha  occ. eigenvalues --   -0.67561  -0.66194  -0.62895  -0.61963  -0.61089
 Alpha  occ. eigenvalues --   -0.59899  -0.58965  -0.57310  -0.57105  -0.56705
 Alpha  occ. eigenvalues --   -0.54694  -0.54253  -0.53452  -0.52818  -0.52383
 Alpha  occ. eigenvalues --   -0.51521  -0.50572  -0.50408  -0.49960  -0.49505
 Alpha  occ. eigenvalues --   -0.48867  -0.47685  -0.47348  -0.46442  -0.45229
 Alpha  occ. eigenvalues --   -0.43297  -0.42558  -0.40538
 Alpha virt. eigenvalues --   -0.30613  -0.12175  -0.11036  -0.10335  -0.09642
 Alpha virt. eigenvalues --   -0.08704  -0.08481  -0.08043  -0.07518  -0.07331
 Alpha virt. eigenvalues --   -0.06040  -0.05509  -0.05297  -0.04653  -0.04525
 Alpha virt. eigenvalues --   -0.04344  -0.04024  -0.03793  -0.03166  -0.02439
 Alpha virt. eigenvalues --   -0.01933  -0.01642  -0.01545  -0.01347  -0.00811
 Alpha virt. eigenvalues --   -0.00521   0.00645   0.00864   0.01183   0.01472
 Alpha virt. eigenvalues --    0.02026   0.02588   0.02880   0.03094   0.03476
 Alpha virt. eigenvalues --    0.03601   0.04237   0.04459   0.04948   0.05187
 Alpha virt. eigenvalues --    0.05396   0.05879   0.06598   0.06926   0.07013
 Alpha virt. eigenvalues --    0.07259   0.07452   0.07647   0.08629   0.08731
 Alpha virt. eigenvalues --    0.08951   0.09058   0.09367   0.09805   0.10076
 Alpha virt. eigenvalues --    0.10109   0.10495   0.10858   0.11027   0.11548
 Alpha virt. eigenvalues --    0.11597   0.12039   0.12314   0.12986   0.13111
 Alpha virt. eigenvalues --    0.13481   0.14003   0.14204   0.14627   0.14978
 Alpha virt. eigenvalues --    0.15012   0.15692   0.16069   0.16364   0.17025
 Alpha virt. eigenvalues --    0.17470   0.17765   0.18131   0.18240   0.18699
 Alpha virt. eigenvalues --    0.19411   0.19962   0.20285   0.20891   0.21572
 Alpha virt. eigenvalues --    0.22060   0.22606   0.22999   0.23850   0.24722
 Alpha virt. eigenvalues --    0.24928   0.25920   0.26817   0.27135   0.27670
 Alpha virt. eigenvalues --    0.29388   0.30405   0.31162   0.33515   0.35251
 Alpha virt. eigenvalues --    0.38589   0.39245   0.42888   0.44705   0.46912
 Alpha virt. eigenvalues --    0.48648   0.49787   0.50859   0.52337   0.53372
 Alpha virt. eigenvalues --    0.53851   0.54151   0.55193   0.57081   0.57508
 Alpha virt. eigenvalues --    0.58668   0.58894   0.60729   0.61040   0.61550
 Alpha virt. eigenvalues --    0.62356   0.62602   0.63498   0.65034   0.65725
 Alpha virt. eigenvalues --    0.65909   0.66663   0.67203   0.68343   0.69064
 Alpha virt. eigenvalues --    0.69987   0.71623   0.72592   0.73273   0.73698
 Alpha virt. eigenvalues --    0.75183   0.76193   0.77248   0.79514   0.81088
 Alpha virt. eigenvalues --    0.82428   0.82669   0.84230   0.84881   0.86198
 Alpha virt. eigenvalues --    0.87253   0.87677   0.88379   0.88988   0.89885
 Alpha virt. eigenvalues --    0.91413   0.91862   0.93200   0.93504   0.94093
 Alpha virt. eigenvalues --    0.94817   0.97597   0.98051   0.98482   0.99061
 Alpha virt. eigenvalues --    1.00137   1.01497   1.01669   1.02131   1.03466
 Alpha virt. eigenvalues --    1.04475   1.05086   1.05831   1.06622   1.07777
 Alpha virt. eigenvalues --    1.08367   1.08841   1.09820   1.10570   1.11242
 Alpha virt. eigenvalues --    1.13315   1.14265   1.18965   1.21043   1.22608
 Alpha virt. eigenvalues --    1.25210   1.26414   1.27680   1.28721   1.29622
 Alpha virt. eigenvalues --    1.31925   1.33457   1.33779   1.35465   1.38789
 Alpha virt. eigenvalues --    1.41781   1.43569   1.47374   1.48079   1.49819
 Alpha virt. eigenvalues --    1.51911   1.52970   1.56294   1.56987   1.58615
 Alpha virt. eigenvalues --    1.61370   1.63634   1.64749   1.65557   1.66336
 Alpha virt. eigenvalues --    1.67694   1.69208   1.69860   1.72361   1.73231
 Alpha virt. eigenvalues --    1.73688   1.74127   1.76272   1.76955   1.77907
 Alpha virt. eigenvalues --    1.78474   1.81250   1.82104   1.82618   1.84823
 Alpha virt. eigenvalues --    1.84829   1.86224   1.86973   1.87627   1.87698
 Alpha virt. eigenvalues --    1.89788   1.91554   1.91691   1.92770   1.93126
 Alpha virt. eigenvalues --    1.95537   1.96215   1.97336   1.98358   1.99563
 Alpha virt. eigenvalues --    2.00369   2.01645   2.02368   2.03104   2.04021
 Alpha virt. eigenvalues --    2.04223   2.05434   2.05903   2.07428   2.08657
 Alpha virt. eigenvalues --    2.09753   2.11133   2.11366   2.12637   2.13580
 Alpha virt. eigenvalues --    2.15890   2.16814   2.19223   2.20383   2.20675
 Alpha virt. eigenvalues --    2.22661   2.23231   2.24161   2.26341   2.26423
 Alpha virt. eigenvalues --    2.27707   2.28944   2.29615   2.32374   2.34593
 Alpha virt. eigenvalues --    2.34869   2.36406   2.37358   2.40016   2.40405
 Alpha virt. eigenvalues --    2.41572   2.42969   2.44087   2.46000   2.46296
 Alpha virt. eigenvalues --    2.47151   2.49974   2.51902   2.52372   2.54194
 Alpha virt. eigenvalues --    2.56054   2.57267   2.57678   2.58460   2.59502
 Alpha virt. eigenvalues --    2.60620   2.62078   2.62097   2.64420   2.65067
 Alpha virt. eigenvalues --    2.66676   2.66776   2.68470   2.69295   2.70495
 Alpha virt. eigenvalues --    2.72145   2.73471   2.75458   2.75969   2.77026
 Alpha virt. eigenvalues --    2.77474   2.78848   2.79759   2.80380   2.82147
 Alpha virt. eigenvalues --    2.82819   2.83561   2.84043   2.84869   2.86129
 Alpha virt. eigenvalues --    2.87967   2.88764   2.92080   2.92975   2.95534
 Alpha virt. eigenvalues --    2.96791   3.07697   3.08263   3.19680   3.22928
 Alpha virt. eigenvalues --    3.24123   3.25132   3.26659   3.28228   3.28687
 Alpha virt. eigenvalues --    3.29440   3.30568   3.31948   3.34120   3.37815
 Alpha virt. eigenvalues --    3.38711   3.39487   3.40374   3.41233   3.41803
 Alpha virt. eigenvalues --    3.41994   3.43942   3.44333   3.45268   3.46590
 Alpha virt. eigenvalues --    3.48141   3.51085   3.52899   3.53954   3.57390
 Alpha virt. eigenvalues --    4.24253   4.32731   4.33998   4.38045   4.41228
 Alpha virt. eigenvalues --    4.46270   4.51069   4.53981   4.64232   4.64525
 Alpha virt. eigenvalues --    4.70523   4.71906   4.76348   4.77034   4.84041
 Alpha virt. eigenvalues --    4.86903   4.99169
          Condensed to atoms (all electrons):
               1          2          3          4          5          6
     1  C   15.691474  -7.818969   1.172595   0.248428   0.981335  -2.582574
     2  C   -7.818969  23.184611  -7.410735   0.467868  -0.504223   1.866294
     3  C    1.172595  -7.410735  16.815359  -1.536502  -0.370126  -0.241941
     4  C    0.248428   0.467868  -1.536502   6.738440  -0.034213  -0.046130
     5  C    0.981335  -0.504223  -0.370126  -0.034213   6.364456  -0.880708
     6  C   -2.582574   1.866294  -0.241941  -0.046130  -0.880708   7.644914
     7  H    0.226547   0.087440  -0.026805  -0.010412  -0.013913  -0.005878
     8  H   -0.081685   0.319953  -0.168429   0.281141   0.021270  -0.009443
     9  H    0.032604  -0.022774  -0.143415   0.420123  -0.002814   0.006420
    10  H    0.013405  -0.003065   0.012294  -0.042552   0.414216  -0.072514
    11  H   -0.014217   0.008164   0.026124  -0.087097   0.435268  -0.064117
    12  H   -0.028429   0.130923   0.257439  -0.023086  -0.001129  -0.003777
    13  C   -0.243880   1.921019  -4.457367   0.964540   0.101276  -0.012379
    14  C   -0.743810  -1.385017  -1.467166  -0.085669  -0.048614   0.351957
    15  C   -0.446548  -0.387629   0.506101  -0.036162  -0.005425  -0.035421
    16  C    0.113475  -0.344564   1.327610  -0.399806   0.035982  -0.080124
    17  H   -0.002783   0.026628  -0.078676   0.002141  -0.000243   0.000571
    18  H    0.027532   0.114879  -0.031164   0.000675   0.000140  -0.000477
    19  H   -0.064851  -0.046498  -0.081656  -0.003327   0.003316   0.000965
    20  H   -0.058370  -0.033919   0.013275  -0.002067  -0.000599  -0.013547
    21  H    0.021994   0.152419  -0.061281   0.007341  -0.000395   0.002039
    22  H   -0.020170   0.022036   0.031770  -0.000943   0.000226   0.000060
    23  C    0.611813  -2.674890   0.646884  -0.568632   0.325570  -0.657222
    24  H   -0.074108  -0.325529   0.217428  -0.060275  -0.052379   0.093801
    25  H    0.030450  -0.050937  -0.043703   0.000730   0.020099  -0.061157
    26  H    0.041847  -0.054517  -0.057211   0.025137  -0.001289   0.012683
    27  C   -0.281558  -0.054973   0.467945  -0.039959  -0.161089   0.118739
    28  H   -0.024138   0.122680  -0.050355   0.024306   0.005023  -0.002228
    29  H   -0.002226  -0.014478  -0.008042   0.004413  -0.003180   0.001070
    30  H   -0.000729  -0.133610   0.159356  -0.067688   0.000284  -0.003633
    31  C    0.131897  -0.640982   1.203905  -0.116725  -0.018103  -0.073611
    32  H    0.002294   0.006008  -0.042964   0.016121  -0.000892  -0.000484
    33  H    0.007735   0.002428   0.041994  -0.022462   0.003265  -0.002314
    34  H   -0.005290  -0.006965   0.062662  -0.029599  -0.011935   0.006698
    35  C   -1.356441   0.881099  -0.442782  -0.070956  -0.173521   0.570560
    36  H   -0.090122  -0.043951  -0.013846   0.000380  -0.009192   0.062505
    37  H   -0.119543   0.036666   0.031764  -0.000951  -0.011067   0.021406
    38  H   -0.274074   0.211918  -0.029823   0.002250   0.011676  -0.021385
    39  C    0.757524  -0.464135   0.068457  -0.037678   0.135836  -0.276260
    40  H   -0.000480   0.192115  -0.033357   0.008436  -0.001752  -0.036188
    41  H    0.036837  -0.044326   0.005752   0.008083  -0.008595  -0.077514
    42  H    0.112282  -0.113421  -0.018816  -0.003993   0.027626  -0.111626
               7          8          9         10         11         12
     1  C    0.226547  -0.081685   0.032604   0.013405  -0.014217  -0.028429
     2  C    0.087440   0.319953  -0.022774  -0.003065   0.008164   0.130923
     3  C   -0.026805  -0.168429  -0.143415   0.012294   0.026124   0.257439
     4  C   -0.010412   0.281141   0.420123  -0.042552  -0.087097  -0.023086
     5  C   -0.013913   0.021270  -0.002814   0.414216   0.435268  -0.001129
     6  C   -0.005878  -0.009443   0.006420  -0.072514  -0.064117  -0.003777
     7  H    0.546117   0.000043  -0.000026   0.000042   0.003574   0.002970
     8  H    0.000043   0.600204  -0.025447  -0.002996   0.004953   0.005077
     9  H   -0.000026  -0.025447   0.511951  -0.004392  -0.003438  -0.003385
    10  H    0.000042  -0.002996  -0.004392   0.518374  -0.024451   0.000072
    11  H    0.003574   0.004953  -0.003438  -0.024451   0.518004   0.002578
    12  H    0.002970   0.005077  -0.003385   0.000072   0.002578   0.557776
    13  C   -0.004563  -0.020521   0.078782  -0.000655  -0.011981  -0.007714
    14  C    0.044994   0.039396  -0.018955  -0.002557   0.014637  -0.004846
    15  C   -0.001463  -0.007599   0.000822  -0.000226  -0.002396  -0.037876
    16  C    0.006563   0.018423  -0.006186   0.000280   0.005223   0.020235
    17  H    0.000001  -0.000001  -0.000000  -0.000000   0.000000   0.000131
    18  H    0.000011   0.000001  -0.000016   0.000000   0.000002   0.003213
    19  H    0.003564  -0.000003  -0.000002   0.000000   0.000013   0.002451
    20  H   -0.000698   0.000002   0.000002  -0.000000   0.000001   0.000069
    21  H    0.000005  -0.000010   0.000001  -0.000000   0.000000   0.000067
    22  H   -0.000008   0.000001  -0.000000   0.000000  -0.000000  -0.000010
    23  C   -0.066297  -0.085081   0.033653   0.009394  -0.018814  -0.030877
    24  H   -0.000654  -0.005563  -0.000376   0.000117  -0.000336  -0.000243
    25  H   -0.000086   0.000205   0.000001  -0.000003   0.000006  -0.000102
    26  H   -0.000096  -0.000893   0.000096   0.000005   0.000007  -0.000160
    27  C    0.004706  -0.024693  -0.017427  -0.002010   0.001081  -0.015025
    28  H   -0.000000  -0.000844  -0.000023  -0.000003  -0.000004  -0.000341
    29  H   -0.000000  -0.000062   0.000011  -0.000000   0.000000  -0.000108
    30  H    0.000000   0.001128   0.000601   0.000028  -0.000012  -0.000136
    31  C    0.000824  -0.003971  -0.031392   0.000503   0.000507  -0.008233
    32  H    0.000000  -0.000013  -0.000060  -0.000000  -0.000000   0.000110
    33  H    0.000000   0.000139   0.000327   0.000001   0.000016   0.003530
    34  H    0.000001   0.000119   0.002364   0.000016   0.000029  -0.000419
    35  C    0.017138   0.014625   0.000615   0.001080   0.008229   0.008983
    36  H   -0.003287   0.000001  -0.000000  -0.000000  -0.000000  -0.000003
    37  H   -0.003372   0.000002  -0.000000   0.000002  -0.000004  -0.000012
    38  H    0.005038  -0.000022   0.000000  -0.000000   0.000002   0.000005
    39  C    0.009276  -0.010122   0.007070  -0.004132   0.013427   0.006715
    40  H    0.000029   0.001440   0.000470   0.000377   0.000321  -0.000056
    41  H   -0.000127   0.000093  -0.000066   0.001699  -0.000036   0.000001
    42  H   -0.000022   0.000244  -0.000004  -0.000008  -0.000126   0.000009
              13         14         15         16         17         18
     1  C   -0.243880  -0.743810  -0.446548   0.113475  -0.002783   0.027532
     2  C    1.921019  -1.385017  -0.387629  -0.344564   0.026628   0.114879
     3  C   -4.457367  -1.467166   0.506101   1.327610  -0.078676  -0.031164
     4  C    0.964540  -0.085669  -0.036162  -0.399806   0.002141   0.000675
     5  C    0.101276  -0.048614  -0.005425   0.035982  -0.000243   0.000140
     6  C   -0.012379   0.351957  -0.035421  -0.080124   0.000571  -0.000477
     7  H   -0.004563   0.044994  -0.001463   0.006563   0.000001   0.000011
     8  H   -0.020521   0.039396  -0.007599   0.018423  -0.000001   0.000001
     9  H    0.078782  -0.018955   0.000822  -0.006186  -0.000000  -0.000016
    10  H   -0.000655  -0.002557  -0.000226   0.000280  -0.000000   0.000000
    11  H   -0.011981   0.014637  -0.002396   0.005223   0.000000   0.000002
    12  H   -0.007714  -0.004846  -0.037876   0.020235   0.000131   0.003213
    13  C   13.267825   0.333779  -0.207891  -2.309911   0.012985  -0.146463
    14  C    0.333779  10.974629  -0.032683  -0.503606   0.034601  -0.053215
    15  C   -0.207891  -0.032683   5.699690   0.343301  -0.042135  -0.064537
    16  C   -2.309911  -0.503606   0.343301   7.360159   0.403818   0.525714
    17  H    0.012985   0.034601  -0.042135   0.403818   0.540066  -0.026637
    18  H   -0.146463  -0.053215  -0.064537   0.525714  -0.026637   0.554194
    19  H   -0.003841   0.556178  -0.039248  -0.010955   0.000072   0.002941
    20  H    0.018279   0.363486   0.006004   0.024759  -0.000165   0.000038
    21  H    0.009280  -0.103838   0.368549  -0.050477  -0.003633   0.005174
    22  H    0.027337  -0.109846   0.451591  -0.095716  -0.002866  -0.002956
    23  C    0.118590  -1.795831   0.329440  -0.034774   0.003535  -0.012568
    24  H   -0.091758  -0.049933   0.020746  -0.002892  -0.000001   0.000001
    25  H    0.024418  -0.074549   0.018373  -0.001831  -0.000003  -0.000002
    26  H    0.059262   0.015626  -0.024894  -0.028882   0.000109  -0.000108
    27  C   -0.507023  -0.036873   0.082284  -0.502232   0.011419   0.018442
    28  H   -0.079920  -0.037701  -0.001803  -0.012923  -0.000449  -0.000038
    29  H   -0.073493  -0.007000   0.016933  -0.025342   0.002579   0.000075
    30  H   -0.119039   0.015393   0.010961   0.004132   0.000072  -0.000143
    31  C   -2.209167  -0.085906  -0.102124   0.371617  -0.048835  -0.072050
    32  H   -0.050599  -0.001652  -0.005098   0.008241   0.002862  -0.000257
    33  H   -0.173967  -0.000091  -0.010662  -0.006984  -0.000354   0.002661
    34  H   -0.122537  -0.001307  -0.001425   0.013463   0.000094   0.000083
    35  C   -0.035219   0.120512  -0.031731  -0.003215   0.000225   0.001128
    36  H   -0.000854  -0.011044  -0.001519  -0.000115  -0.000000   0.000000
    37  H   -0.002542  -0.064616  -0.001783  -0.000396  -0.000000   0.000001
    38  H    0.003991   0.045895   0.008437   0.001043   0.000000   0.000000
    39  C    0.024671  -0.145516  -0.025893   0.022758  -0.000137   0.000208
    40  H   -0.006890   0.006065  -0.001585   0.002550  -0.000001   0.000002
    41  H   -0.000701  -0.001858  -0.000044  -0.000094   0.000000   0.000000
    42  H    0.004320  -0.000377  -0.000725  -0.000295   0.000000  -0.000000
              19         20         21         22         23         24
     1  C   -0.064851  -0.058370   0.021994  -0.020170   0.611813  -0.074108
     2  C   -0.046498  -0.033919   0.152419   0.022036  -2.674890  -0.325529
     3  C   -0.081656   0.013275  -0.061281   0.031770   0.646884   0.217428
     4  C   -0.003327  -0.002067   0.007341  -0.000943  -0.568632  -0.060275
     5  C    0.003316  -0.000599  -0.000395   0.000226   0.325570  -0.052379
     6  C    0.000965  -0.013547   0.002039   0.000060  -0.657222   0.093801
     7  H    0.003564  -0.000698   0.000005  -0.000008  -0.066297  -0.000654
     8  H   -0.000003   0.000002  -0.000010   0.000001  -0.085081  -0.005563
     9  H   -0.000002   0.000002   0.000001  -0.000000   0.033653  -0.000376
    10  H    0.000000  -0.000000  -0.000000   0.000000   0.009394   0.000117
    11  H    0.000013   0.000001   0.000000  -0.000000  -0.018814  -0.000336
    12  H    0.002451   0.000069   0.000067  -0.000010  -0.030877  -0.000243
    13  C   -0.003841   0.018279   0.009280   0.027337   0.118590  -0.091758
    14  C    0.556178   0.363486  -0.103838  -0.109846  -1.795831  -0.049933
    15  C   -0.039248   0.006004   0.368549   0.451591   0.329440   0.020746
    16  C   -0.010955   0.024759  -0.050477  -0.095716  -0.034774  -0.002892
    17  H    0.000072  -0.000165  -0.003633  -0.002866   0.003535  -0.000001
    18  H    0.002941   0.000038   0.005174  -0.002956  -0.012568   0.000001
    19  H    0.536351  -0.030019   0.005045  -0.002681   0.002815  -0.000243
    20  H   -0.030019   0.564752  -0.003768  -0.003680   0.009415   0.000008
    21  H    0.005045  -0.003768   0.587914  -0.023453  -0.049042   0.000422
    22  H   -0.002681  -0.003680  -0.023453   0.530353   0.022501  -0.000014
    23  C    0.002815   0.009415  -0.049042   0.022501  10.082570   0.652716
    24  H   -0.000243   0.000008   0.000422  -0.000014   0.652716   0.773354
    25  H   -0.000021   0.002586  -0.000304  -0.000007   0.509012  -0.034953
    26  H    0.000154  -0.000886   0.002075   0.000024   0.501518  -0.021178
    27  C   -0.006435  -0.003648  -0.001289   0.013922  -0.532921   0.065509
    28  H   -0.000190   0.000356  -0.003808  -0.000196  -0.313112  -0.008075
    29  H   -0.000004  -0.000001  -0.000098  -0.000009   0.022437   0.000420
    30  H    0.000008  -0.000002   0.000252   0.000000   0.069580   0.000911
    31  C    0.007778   0.002284  -0.001416  -0.008501  -0.312477  -0.006448
    32  H    0.000000  -0.000000  -0.000011  -0.000004  -0.006273  -0.000000
    33  H    0.000008   0.000000   0.000001  -0.000004   0.000887  -0.000002
    34  H    0.000002  -0.000000   0.000003   0.000003  -0.000570  -0.000000
    35  C   -0.006028  -0.008314  -0.000375   0.000542  -0.228553   0.018559
    36  H   -0.000047   0.000066  -0.000000  -0.000000   0.018398   0.000009
    37  H    0.000221   0.001716   0.000035   0.000011  -0.001321   0.000133
    38  H    0.000137  -0.000136   0.000016  -0.000001  -0.079053  -0.001331
    39  C    0.000597  -0.001395   0.000742  -0.000248  -0.255638  -0.244742
    40  H    0.000006   0.000035  -0.000023   0.000002  -0.272167   0.009000
    41  H   -0.000000   0.000000  -0.000000  -0.000000   0.026601   0.004681
    42  H   -0.000000   0.000006  -0.000001  -0.000000   0.069107  -0.000909
              25         26         27         28         29         30
     1  C    0.030450   0.041847  -0.281558  -0.024138  -0.002226  -0.000729
     2  C   -0.050937  -0.054517  -0.054973   0.122680  -0.014478  -0.133610
     3  C   -0.043703  -0.057211   0.467945  -0.050355  -0.008042   0.159356
     4  C    0.000730   0.025137  -0.039959   0.024306   0.004413  -0.067688
     5  C    0.020099  -0.001289  -0.161089   0.005023  -0.003180   0.000284
     6  C   -0.061157   0.012683   0.118739  -0.002228   0.001070  -0.003633
     7  H   -0.000086  -0.000096   0.004706  -0.000000  -0.000000   0.000000
     8  H    0.000205  -0.000893  -0.024693  -0.000844  -0.000062   0.001128
     9  H    0.000001   0.000096  -0.017427  -0.000023   0.000011   0.000601
    10  H   -0.000003   0.000005  -0.002010  -0.000003  -0.000000   0.000028
    11  H    0.000006   0.000007   0.001081  -0.000004   0.000000  -0.000012
    12  H   -0.000102  -0.000160  -0.015025  -0.000341  -0.000108  -0.000136
    13  C    0.024418   0.059262  -0.507023  -0.079920  -0.073493  -0.119039
    14  C   -0.074549   0.015626  -0.036873  -0.037701  -0.007000   0.015393
    15  C    0.018373  -0.024894   0.082284  -0.001803   0.016933   0.010961
    16  C   -0.001831  -0.028882  -0.502232  -0.012923  -0.025342   0.004132
    17  H   -0.000003   0.000109   0.011419  -0.000449   0.002579   0.000072
    18  H   -0.000002  -0.000108   0.018442  -0.000038   0.000075  -0.000143
    19  H   -0.000021   0.000154  -0.006435  -0.000190  -0.000004   0.000008
    20  H    0.002586  -0.000886  -0.003648   0.000356  -0.000001  -0.000002
    21  H   -0.000304   0.002075  -0.001289  -0.003808  -0.000098   0.000252
    22  H   -0.000007   0.000024   0.013922  -0.000196  -0.000009   0.000000
    23  C    0.509012   0.501518  -0.532921  -0.313112   0.022437   0.069580
    24  H   -0.034953  -0.021178   0.065509  -0.008075   0.000420   0.000911
    25  H    0.506661  -0.020627   0.004464   0.007376  -0.000123   0.000120
    26  H   -0.020627   0.606678  -0.198324  -0.023181   0.004884   0.001199
    27  C    0.004464  -0.198324   6.917515   0.538033   0.475352   0.457100
    28  H    0.007376  -0.023181   0.538033   0.755354  -0.028065  -0.040210
    29  H   -0.000123   0.004884   0.475352  -0.028065   0.507357  -0.022527
    30  H    0.000120   0.001199   0.457100  -0.040210  -0.022527   0.549093
    31  C    0.000285  -0.026475  -0.351210   0.050174  -0.031191  -0.037238
    32  H   -0.000000  -0.000009   0.008662   0.000130   0.002785  -0.000223
    33  H   -0.000000   0.000013   0.010187  -0.000289   0.000121  -0.000010
    34  H    0.000000   0.000001  -0.020696   0.000073  -0.000252   0.002653
    35  C   -0.051325   0.009445   0.005011  -0.002868   0.000313  -0.001448
    36  H    0.000152  -0.000010   0.000499   0.000001  -0.000000  -0.000000
    37  H    0.000064  -0.000032   0.000108  -0.000000   0.000000  -0.000000
    38  H    0.000149   0.000006   0.000116   0.000013  -0.000000  -0.000000
    39  C    0.023964   0.012928  -0.065151  -0.000093  -0.000059  -0.000618
    40  H    0.001327   0.000748  -0.008406   0.002524  -0.000053  -0.002043
    41  H    0.000153  -0.000146   0.001082   0.000010   0.000000  -0.000019
    42  H   -0.004759   0.000287  -0.004965  -0.000053   0.000000   0.000001
              31         32         33         34         35         36
     1  C    0.131897   0.002294   0.007735  -0.005290  -1.356441  -0.090122
     2  C   -0.640982   0.006008   0.002428  -0.006965   0.881099  -0.043951
     3  C    1.203905  -0.042964   0.041994   0.062662  -0.442782  -0.013846
     4  C   -0.116725   0.016121  -0.022462  -0.029599  -0.070956   0.000380
     5  C   -0.018103  -0.000892   0.003265  -0.011935  -0.173521  -0.009192
     6  C   -0.073611  -0.000484  -0.002314   0.006698   0.570560   0.062505
     7  H    0.000824   0.000000   0.000000   0.000001   0.017138  -0.003287
     8  H   -0.003971  -0.000013   0.000139   0.000119   0.014625   0.000001
     9  H   -0.031392  -0.000060   0.000327   0.002364   0.000615  -0.000000
    10  H    0.000503  -0.000000   0.000001   0.000016   0.001080  -0.000000
    11  H    0.000507  -0.000000   0.000016   0.000029   0.008229  -0.000000
    12  H   -0.008233   0.000110   0.003530  -0.000419   0.008983  -0.000003
    13  C   -2.209167  -0.050599  -0.173967  -0.122537  -0.035219  -0.000854
    14  C   -0.085906  -0.001652  -0.000091  -0.001307   0.120512  -0.011044
    15  C   -0.102124  -0.005098  -0.010662  -0.001425  -0.031731  -0.001519
    16  C    0.371617   0.008241  -0.006984   0.013463  -0.003215  -0.000115
    17  H   -0.048835   0.002862  -0.000354   0.000094   0.000225  -0.000000
    18  H   -0.072050  -0.000257   0.002661   0.000083   0.001128   0.000000
    19  H    0.007778   0.000000   0.000008   0.000002  -0.006028  -0.000047
    20  H    0.002284  -0.000000   0.000000  -0.000000  -0.008314   0.000066
    21  H   -0.001416  -0.000011   0.000001   0.000003  -0.000375  -0.000000
    22  H   -0.008501  -0.000004  -0.000004   0.000003   0.000542  -0.000000
    23  C   -0.312477  -0.006273   0.000887  -0.000570  -0.228553   0.018398
    24  H   -0.006448  -0.000000  -0.000002  -0.000000   0.018559   0.000009
    25  H    0.000285  -0.000000  -0.000000   0.000000  -0.051325   0.000152
    26  H   -0.026475  -0.000009   0.000013   0.000001   0.009445  -0.000010
    27  C   -0.351210   0.008662   0.010187  -0.020696   0.005011   0.000499
    28  H    0.050174   0.000130  -0.000289   0.000073  -0.002868   0.000001
    29  H   -0.031191   0.002785   0.000121  -0.000252   0.000313  -0.000000
    30  H   -0.037238  -0.000223  -0.000010   0.002653  -0.001448  -0.000000
    31  C    7.306171   0.423557   0.500227   0.461418  -0.031251  -0.000155
    32  H    0.423557   0.514311  -0.024091  -0.025557  -0.000152   0.000000
    33  H    0.500227  -0.024091   0.534539  -0.030986   0.000170  -0.000000
    34  H    0.461418  -0.025557  -0.030986   0.572537   0.000175  -0.000000
    35  C   -0.031251  -0.000152   0.000170   0.000175   6.066472   0.467125
    36  H   -0.000155   0.000000  -0.000000  -0.000000   0.467125   0.505868
    37  H    0.000484  -0.000000   0.000000  -0.000000   0.469343  -0.020110
    38  H   -0.000145   0.000000  -0.000000   0.000000   0.474717  -0.027126
    39  C    0.018025   0.000210   0.000276  -0.001576  -0.174885  -0.013286
    40  H    0.003406  -0.000001   0.000000   0.000005   0.007977  -0.000052
    41  H    0.000545   0.000000  -0.000000  -0.000000   0.004977  -0.000003
    42  H   -0.000272   0.000000   0.000000  -0.000000  -0.021704   0.000368
              37         38         39         40         41         42
     1  C   -0.119543  -0.274074   0.757524  -0.000480   0.036837   0.112282
     2  C    0.036666   0.211918  -0.464135   0.192115  -0.044326  -0.113421
     3  C    0.031764  -0.029823   0.068457  -0.033357   0.005752  -0.018816
     4  C   -0.000951   0.002250  -0.037678   0.008436   0.008083  -0.003993
     5  C   -0.011067   0.011676   0.135836  -0.001752  -0.008595   0.027626
     6  C    0.021406  -0.021385  -0.276260  -0.036188  -0.077514  -0.111626
     7  H   -0.003372   0.005038   0.009276   0.000029  -0.000127  -0.000022
     8  H    0.000002  -0.000022  -0.010122   0.001440   0.000093   0.000244
     9  H   -0.000000   0.000000   0.007070   0.000470  -0.000066  -0.000004
    10  H    0.000002  -0.000000  -0.004132   0.000377   0.001699  -0.000008
    11  H   -0.000004   0.000002   0.013427   0.000321  -0.000036  -0.000126
    12  H   -0.000012   0.000005   0.006715  -0.000056   0.000001   0.000009
    13  C   -0.002542   0.003991   0.024671  -0.006890  -0.000701   0.004320
    14  C   -0.064616   0.045895  -0.145516   0.006065  -0.001858  -0.000377
    15  C   -0.001783   0.008437  -0.025893  -0.001585  -0.000044  -0.000725
    16  C   -0.000396   0.001043   0.022758   0.002550  -0.000094  -0.000295
    17  H   -0.000000   0.000000  -0.000137  -0.000001   0.000000   0.000000
    18  H    0.000001   0.000000   0.000208   0.000002   0.000000  -0.000000
    19  H    0.000221   0.000137   0.000597   0.000006  -0.000000  -0.000000
    20  H    0.001716  -0.000136  -0.001395   0.000035   0.000000   0.000006
    21  H    0.000035   0.000016   0.000742  -0.000023  -0.000000  -0.000001
    22  H    0.000011  -0.000001  -0.000248   0.000002  -0.000000  -0.000000
    23  C   -0.001321  -0.079053  -0.255638  -0.272167   0.026601   0.069107
    24  H    0.000133  -0.001331  -0.244742   0.009000   0.004681  -0.000909
    25  H    0.000064   0.000149   0.023964   0.001327   0.000153  -0.004759
    26  H   -0.000032   0.000006   0.012928   0.000748  -0.000146   0.000287
    27  C    0.000108   0.000116  -0.065151  -0.008406   0.001082  -0.004965
    28  H   -0.000000   0.000013  -0.000093   0.002524   0.000010  -0.000053
    29  H    0.000000  -0.000000  -0.000059  -0.000053   0.000000   0.000000
    30  H   -0.000000  -0.000000  -0.000618  -0.002043  -0.000019   0.000001
    31  C    0.000484  -0.000145   0.018025   0.003406   0.000545  -0.000272
    32  H   -0.000000   0.000000   0.000210  -0.000001   0.000000   0.000000
    33  H    0.000000  -0.000000   0.000276   0.000000  -0.000000   0.000000
    34  H   -0.000000   0.000000  -0.001576   0.000005  -0.000000  -0.000000
    35  C    0.469343   0.474717  -0.174885   0.007977   0.004977  -0.021704
    36  H   -0.020110  -0.027126  -0.013286  -0.000052  -0.000003   0.000368
    37  H    0.513558  -0.027058   0.004341  -0.000034  -0.000004  -0.000026
    38  H   -0.027058   0.564213  -0.013047  -0.000154   0.000053   0.002825
    39  C    0.004341  -0.013047   5.887212   0.412561   0.395030   0.422229
    40  H   -0.000034  -0.000154   0.412561   0.552867  -0.013850  -0.027218
    41  H   -0.000004   0.000053   0.395030  -0.013850   0.478665  -0.021556
    42  H   -0.000026   0.002825   0.422229  -0.027218  -0.021556   0.485910
 Mulliken charges:
               1
     1  C    0.072924
     2  C   -1.175038
     3  C   -0.252551
     4  C    0.106332
     5  C   -0.571467
     6  C    0.611968
     7  H    0.178824
     8  H    0.138937
     9  H    0.184284
    10  H    0.187658
    11  H    0.184864
    12  H    0.163610
    13  C   -0.069480
    14  C   -0.043074
    15  C   -0.306706
    16  C   -0.188025
    17  H    0.165010
    18  H    0.153516
    19  H    0.173427
    20  H    0.154072
    21  H    0.139850
    22  H    0.170935
    23  C   -0.070323
    24  H    0.124126
    25  H    0.193895
    26  H    0.164185
    27  C   -0.366266
    28  H    0.124859
    29  H    0.177560
    30  H    0.156457
    31  C   -0.265729
    32  H    0.173049
    33  H    0.163691
    34  H    0.136715
    35  C   -0.508252
    36  H    0.179351
    37  H    0.173015
    38  H    0.140858
    39  C   -0.489442
    40  H    0.202046
    41  H    0.204676
    42  H    0.205663
 Sum of Mulliken charges =   1.00000
 Mulliken charges with hydrogens summed into heavy atoms:
               1
     1  C    0.251748
     2  C   -1.175038
     3  C   -0.088941
     4  C    0.429553
     5  C   -0.198945
     6  C    0.611968
    13  C   -0.069480
    14  C    0.284424
    15  C    0.004079
    16  C    0.130501
    23  C    0.411883
    27  C    0.092609
    31  C    0.207726
    35  C   -0.015028
    39  C    0.122942
 Electronic spatial extent (au):  <R**2>=           7767.9673
 Charge=              1.0000 electrons
 Dipole moment (field-independent basis, Debye):
    X=             14.8835    Y=             -4.1004    Z=             -9.8047  Tot=             18.2883
 Quadrupole moment (field-independent basis, Debye-Ang):
   XX=            -29.3883   YY=            -82.7713   ZZ=            -62.9700
   XY=            -13.6113   XZ=            -28.2159   YZ=              9.0696
 Traceless Quadrupole moment (field-independent basis, Debye-Ang):
   XX=             28.9882   YY=            -24.3948   ZZ=             -4.5934
   XY=            -13.6113   XZ=            -28.2159   YZ=              9.0696
 Octapole moment (field-independent basis, Debye-Ang**2):
  XXX=           -384.0476  YYY=            204.7400  ZZZ=            544.0218  XYY=           -190.8822
  XXY=             13.8320  XXZ=             94.2488  XZZ=           -141.7976  YZZ=             47.2521
  YYZ=            197.0589  XYZ=             25.1191
[...]
    28  H   -0.104172   0.006630  -0.010189  -0.015228  -0.000328  -0.000058
    29  H   -0.012124  -0.005878   0.014403  -0.042387   0.002712   0.000057
    30  H   -0.192075   0.000379   0.007841   0.012062   0.000176  -0.000132
    31  C   -1.306475  -0.134985  -0.042066   0.310360  -0.058280  -0.040559
    32  H   -0.049405  -0.000252  -0.003103   0.021222   0.002435  -0.000866
    33  H   -0.145548   0.004468  -0.006019  -0.024136  -0.000030   0.002344
    34  H   -0.101349  -0.003535  -0.004515   0.015985   0.000016   0.000221
    35  C   -0.018969  -0.059025  -0.095603  -0.006663   0.000359   0.002517
    36  H   -0.000407  -0.026351  -0.002424   0.000231  -0.000000   0.000000
    37  H    0.003368   0.006049   0.004100  -0.002684  -0.000000   0.000001
    38  H   -0.001116   0.020794   0.002527   0.000894   0.000000   0.000000
    39  C    0.082130   0.063311   0.003884  -0.001403  -0.000070  -0.000439
    40  H    0.001271  -0.000873   0.000143  -0.000069  -0.000000  -0.000000
    41  H   -0.000171  -0.000121  -0.000023  -0.000054   0.000000  -0.000000
    42  H   -0.000076   0.003684  -0.000340  -0.000125  -0.000000  -0.000000
              19         20         21         22         23         24
     1  C   -0.025840  -0.006865  -0.000414  -0.009495  -0.544455  -0.113351
     2  C    0.032467  -0.113194   0.156043   0.000848  -0.192566  -0.058951
     3  C   -0.108590   0.038430  -0.082347   0.027171  -0.014352   0.057409
     4  C    0.011861  -0.000797   0.012677  -0.001976  -0.645718  -0.052140
     5  C    0.004375  -0.005098  -0.000467   0.000413   0.121173   0.001794
     6  C    0.003360  -0.018042   0.005250  -0.000899   0.048900   0.039773
     7  H    0.003569  -0.000202   0.000005  -0.000019  -0.036708  -0.000238
     8  H   -0.000001   0.000000   0.000004   0.000000  -0.037651  -0.001123
     9  H   -0.000004   0.000002   0.000000  -0.000000   0.020758   0.000021
    10  H    0.000000  -0.000000  -0.000000   0.000000   0.005917   0.000080
    11  H    0.000010   0.000000   0.000000  -0.000000  -0.010914  -0.000064
    12  H    0.002565   0.000022   0.000152  -0.000072  -0.011020  -0.000136
    13  C   -0.005123   0.022045   0.033929   0.034738  -0.081801  -0.030849
    14  C    0.438726   0.374450  -0.131869  -0.067993  -0.954508   0.019449
    15  C   -0.016961   0.026792   0.434338   0.412313  -0.013311   0.009479
    16  C   -0.025709   0.023746  -0.083437  -0.086646  -0.098238  -0.002852
    17  H    0.000037  -0.000137  -0.004232  -0.002069  -0.000270  -0.000003
    18  H    0.002960   0.000000   0.004845  -0.004809  -0.006916   0.000002
    19  H    0.558668  -0.032305   0.004711  -0.004882   0.011230  -0.000139
    20  H   -0.032305   0.550616  -0.004332  -0.002941  -0.017433   0.000184
    21  H    0.004711  -0.004332   0.561087  -0.027763  -0.028952   0.000002
    22  H   -0.004882  -0.002941  -0.027763   0.543776   0.016205   0.000003
    23  C    0.011230  -0.017433  -0.028952   0.016205   7.515144   0.442299
    24  H   -0.000139   0.000184   0.000002   0.000003   0.442299   0.543697
    25  H    0.000005   0.001847   0.000132  -0.000015   0.502395  -0.030660
    26  H    0.000053  -0.000480   0.000916  -0.000085   0.527027  -0.021009
    27  C   -0.005864  -0.001901   0.000156   0.009318  -0.053960   0.023277
    28  H   -0.000019   0.000022  -0.000994  -0.000038  -0.024166  -0.000193
    29  H   -0.000000  -0.000000   0.000027  -0.000005  -0.000456   0.000028
    30  H    0.000001  -0.000001  -0.000022   0.000003   0.013018   0.000001
    31  C    0.006013   0.002333  -0.002986  -0.004002  -0.057197   0.000335
    32  H    0.000001  -0.000000  -0.000012  -0.000004  -0.002685  -0.000000
    33  H    0.000010   0.000000  -0.000003  -0.000004  -0.000534   0.000000
    34  H    0.000001  -0.000000   0.000003   0.000002   0.001857   0.000002
    35  C   -0.019004  -0.004789   0.000919   0.000819   0.082095   0.006190
    36  H   -0.000037   0.000121  -0.000000  -0.000000   0.014729  -0.000001
    37  H    0.000688  -0.001440   0.000007   0.000008   0.013807   0.000006
    38  H    0.000265  -0.000215   0.000007  -0.000001  -0.051554  -0.000193
    39  C    0.000209   0.002962  -0.000662   0.000060  -0.049577   0.006576
    40  H    0.000000   0.000000  -0.000000   0.000000   0.004033   0.000081
    41  H   -0.000000  -0.000000  -0.000000  -0.000000  -0.001747   0.000090
    42  H    0.000001   0.000002   0.000000   0.000000   0.011666  -0.000521
              25         26         27         28         29         30
     1  C    0.049188   0.032804  -0.009609   0.004283  -0.003836   0.013989
     2  C   -0.067007  -0.113561   0.001976   0.006678   0.017912  -0.085992
     3  C   -0.049419   0.047963   0.142886   0.032514  -0.072614   0.176757
     4  C    0.007879  -0.019599  -0.141768  -0.010903   0.012425  -0.047994
     5  C    0.014055  -0.001339   0.058864   0.005079  -0.002519   0.003053
     6  C   -0.066295   0.007480  -0.062586  -0.007407   0.002520  -0.010985
     7  H    0.000014  -0.000077   0.002127   0.000000   0.000000   0.000000
     8  H   -0.000019   0.000101  -0.005775  -0.000087  -0.000004   0.000362
     9  H    0.000001   0.000005  -0.008731   0.000044   0.000008  -0.000328
    10  H   -0.000003   0.000000  -0.000632  -0.000000  -0.000000   0.000005
    11  H   -0.000002   0.000002  -0.000316   0.000000   0.000000  -0.000003
    12  H   -0.000121  -0.000102  -0.011320  -0.000127  -0.000105  -0.000031
    13  C    0.013073  -0.022077  -0.285634  -0.104172  -0.012124  -0.192075
    14  C   -0.032603  -0.062216   0.005044   0.006630  -0.005878   0.000379
    15  C    0.016090  -0.034368   0.124663  -0.010189   0.014403   0.007841
    16  C   -0.007041   0.006284  -0.550828  -0.015228  -0.042387   0.012062
    17  H    0.000000   0.000003   0.017020  -0.000328   0.002712   0.000176
    18  H    0.000000  -0.000012   0.012051  -0.000058   0.000057  -0.000132
    19  H    0.000005   0.000053  -0.005864  -0.000019  -0.000000   0.000001
    20  H    0.001847  -0.000480  -0.001901   0.000022  -0.000000  -0.000001
    21  H    0.000132   0.000916   0.000156  -0.000994   0.000027  -0.000022
    22  H   -0.000015  -0.000085   0.009318  -0.000038  -0.000005   0.000003
    23  C    0.502395   0.527027  -0.053960  -0.024166  -0.000456   0.013018
    24  H   -0.030660  -0.021009   0.023277  -0.000193   0.000028   0.000001
    25  H    0.533130  -0.021903  -0.001907   0.000184  -0.000002  -0.000000
    26  H   -0.021903   0.517521  -0.018558   0.000720   0.000118   0.000028
    27  C   -0.001907  -0.018558   6.492309   0.424097   0.490235   0.517309
    28  H    0.000184   0.000720   0.424097   0.569683  -0.027429  -0.029339
    29  H   -0.000002   0.000118   0.490235  -0.027429   0.524669  -0.026100
    30  H   -0.000000   0.000028   0.517309  -0.029339  -0.026100   0.553830
    31  C   -0.001034   0.000557  -0.618898   0.042812  -0.044544  -0.054365
    32  H   -0.000000  -0.000000  -0.020565   0.000054   0.002627   0.000075
    33  H   -0.000000   0.000000   0.009532  -0.000167   0.000163   0.000006
    34  H   -0.000000  -0.000000  -0.024715   0.000141  -0.000465   0.002140
    35  C   -0.030118   0.008483   0.009616   0.000818  -0.000052  -0.000456
    36  H   -0.000031   0.000000   0.000102  -0.000000   0.000000  -0.000000
    37  H    0.000010  -0.000002  -0.000184  -0.000000  -0.000000  -0.000000
    38  H    0.002285  -0.000073  -0.000020   0.000000   0.000000   0.000000
    39  C   -0.001529  -0.007241  -0.034854  -0.000576   0.000140  -0.001109
    40  H    0.000117  -0.000004   0.000023   0.000000  -0.000000   0.000001
    41  H   -0.000013  -0.000000   0.000083  -0.000000   0.000000  -0.000000
    42  H   -0.000078   0.000031  -0.000768   0.000000  -0.000000   0.000000
              31         32         33         34         35         36
     1  C    0.030854   0.000163   0.002441  -0.002893  -1.507765  -0.217803
     2  C   -0.653049  -0.012512  -0.012521   0.016707   0.904088   0.005764
     3  C    0.916519  -0.048116   0.032342   0.052414  -0.770281  -0.002785
     4  C    0.002874   0.019374  -0.012408  -0.023065  -0.105155  -0.004585
     5  C   -0.063753   0.000085  -0.000180  -0.008309  -0.060040   0.012046
     6  C    0.028531  -0.000198  -0.001216   0.004848   0.555890   0.132967
     7  H   -0.003439   0.000000   0.000003   0.000001   0.008179  -0.001171
     8  H   -0.007215  -0.000011   0.000052   0.000205   0.013248   0.000001
     9  H   -0.009834  -0.000036  -0.000192   0.000139   0.002005   0.000000
    10  H    0.001352  -0.000000   0.000000   0.000004  -0.000857  -0.000002
    11  H   -0.000866  -0.000000   0.000013   0.000021   0.011542   0.000035
    12  H   -0.015722   0.000195   0.005192  -0.000155   0.023842  -0.000009
    13  C   -1.306475  -0.049405  -0.145548  -0.101349  -0.018969  -0.000407
    14  C   -0.134985  -0.000252   0.004468  -0.003535  -0.059025  -0.026351
    15  C   -0.042066  -0.003103  -0.006019  -0.004515  -0.095603  -0.002424
    16  C    0.310360   0.021222  -0.024136   0.015985  -0.006663   0.000231
    17  H   -0.058280   0.002435  -0.000030   0.000016   0.000359  -0.000000
    18  H   -0.040559  -0.000866   0.002344   0.000221   0.002517   0.000000
    19  H    0.006013   0.000001   0.000010   0.000001  -0.019004  -0.000037
    20  H    0.002333  -0.000000   0.000000  -0.000000  -0.004789   0.000121
    21  H   -0.002986  -0.000012  -0.000003   0.000003   0.000919  -0.000000
    22  H   -0.004002  -0.000004  -0.000004   0.000002   0.000819  -0.000000
    23  C   -0.057197  -0.002685  -0.000534   0.001857   0.082095   0.014729
    24  H    0.000335  -0.000000   0.000000   0.000002   0.006190  -0.000001
    25  H   -0.001034  -0.000000  -0.000000  -0.000000  -0.030118  -0.000031
    26  H    0.000557  -0.000000   0.000000  -0.000000   0.008483   0.000000
    27  C   -0.618898  -0.020565   0.009532  -0.024715   0.009616   0.000102
    28  H    0.042812   0.000054  -0.000167   0.000141   0.000818  -0.000000
    29  H   -0.044544   0.002627   0.000163  -0.000465  -0.000052   0.000000
    30  H   -0.054365   0.000075   0.000006   0.002140  -0.000456  -0.000000
    31  C    6.754675   0.447961   0.497590   0.424655  -0.027656  -0.000032
    32  H    0.447961   0.520696  -0.023986  -0.026310  -0.000217   0.000000
    33  H    0.497590  -0.023986   0.548001  -0.030101   0.000136   0.000000
    34  H    0.424655  -0.026310  -0.030101   0.554440   0.000305  -0.000000
    35  C   -0.027656  -0.000217   0.000136   0.000305   6.404537   0.482233
    36  H   -0.000032   0.000000   0.000000  -0.000000   0.482233   0.517718
    37  H    0.000249  -0.000000   0.000000   0.000000   0.398902  -0.022385
    38  H   -0.000077  -0.000000  -0.000000   0.000000   0.494487  -0.027227
    39  C    0.015768   0.000102  -0.000269  -0.000336  -0.136992  -0.037549
    40  H    0.000173  -0.000000   0.000000   0.000000  -0.005781  -0.000008
    41  H    0.000002   0.000000  -0.000000  -0.000000   0.008417   0.000327
    42  H   -0.000049  -0.000000  -0.000000  -0.000000  -0.001187  -0.001052
              37         38         39         40         41         42
     1  C   -0.079968  -0.137212  -0.494445   0.028912  -0.022636   0.009559
     2  C   -0.000200   0.052615  -0.135019  -0.021238  -0.003370  -0.004324
     3  C    0.008713  -0.015161  -0.112913  -0.003379   0.007663  -0.026394
     4  C   -0.001019   0.007251   0.249269   0.020451  -0.005209   0.003596
     5  C   -0.016170   0.004700  -0.766693  -0.078396   0.001302   0.013788
     6  C    0.007574  -0.034926   0.039267  -0.092122   0.010785  -0.136582
     7  H   -0.003924   0.004292   0.025216  -0.000083  -0.000337   0.000111
     8  H    0.000000  -0.000002   0.005960   0.000412  -0.000012  -0.000032
     9  H   -0.000000  -0.000000  -0.001440  -0.000016  -0.000003   0.000006
    10  H    0.000002   0.000002  -0.027421   0.002158  -0.000226   0.000257
    11  H   -0.000005  -0.000004   0.012228   0.000204  -0.000330  -0.000109
    12  H   -0.000009   0.000005   0.001892   0.000003  -0.000003   0.000001
    13  C    0.003368  -0.001116   0.082130   0.001271  -0.000171  -0.000076
    14  C    0.006049   0.020794   0.063311  -0.000873  -0.000121   0.003684
    15  C    0.004100   0.002527   0.003884   0.000143  -0.000023  -0.000340
    16  C   -0.002684   0.000894  -0.001403  -0.000069  -0.000054  -0.000125
    17  H   -0.000000   0.000000  -0.000070  -0.000000   0.000000  -0.000000
    18  H    0.000001   0.000000  -0.000439  -0.000000  -0.000000  -0.000000
    19  H    0.000688   0.000265   0.000209   0.000000  -0.000000   0.000001
    20  H   -0.001440  -0.000215   0.002962   0.000000  -0.000000   0.000002
    21  H    0.000007   0.000007  -0.000662  -0.000000  -0.000000   0.000000
    22  H    0.000008  -0.000001   0.000060   0.000000  -0.000000   0.000000
    23  C    0.013807  -0.051554  -0.049577   0.004033  -0.001747   0.011666
    24  H    0.000006  -0.000193   0.006576   0.000081   0.000090  -0.000521
    25  H    0.000010   0.002285  -0.001529   0.000117  -0.000013  -0.000078
    26  H   -0.000002  -0.000073  -0.007241  -0.000004  -0.000000   0.000031
    27  C   -0.000184  -0.000020  -0.034854   0.000023   0.000083  -0.000768
    28  H   -0.000000   0.000000  -0.000576   0.000000  -0.000000   0.000000
    29  H   -0.000000   0.000000   0.000140  -0.000000   0.000000  -0.000000
    30  H   -0.000000   0.000000  -0.001109   0.000001  -0.000000   0.000000
    31  C    0.000249  -0.000077   0.015768   0.000173   0.000002  -0.000049
    32  H   -0.000000  -0.000000   0.000102  -0.000000   0.000000  -0.000000
    33  H    0.000000  -0.000000  -0.000269   0.000000  -0.000000  -0.000000
    34  H    0.000000   0.000000  -0.000336   0.000000  -0.000000  -0.000000
    35  C    0.398902   0.494487  -0.136992  -0.005781   0.008417  -0.001187
    36  H   -0.022385  -0.027227  -0.037549  -0.000008   0.000327  -0.001052
    37  H    0.501371  -0.022673   0.019767  -0.000003   0.000010   0.000038
    38  H   -0.022673   0.530890   0.002402   0.000066  -0.000176   0.001354
    39  C    0.019767   0.002402   6.544073   0.498391   0.346586   0.481853
    40  H   -0.000003   0.000066   0.498391   0.482552  -0.018534  -0.021742
    41  H    0.000010  -0.000176   0.346586  -0.018534   0.467349  -0.019140
    42  H    0.000038   0.001354   0.481853  -0.021742  -0.019140   0.483651
 Mulliken charges:
               1
     1  C    0.213105
     2  C   -0.634291
     3  C   -0.129822
     4  C   -0.245263
     5  C   -0.313303
     6  C    0.387175
     7  H    0.186479
     8  H    0.174849
     9  H    0.187466
    10  H    0.184692
    11  H    0.202624
    12  H    0.145451
    13  C    0.114740
    14  C   -0.078500
    15  C   -0.400168
    16  C   -0.171402
    17  H    0.162649
    18  H    0.152144
    19  H    0.162692
    20  H    0.166596
    21  H    0.153279
    22  H    0.168043
    23  C   -0.415563
    24  H    0.161646
    25  H    0.169398
    26  H    0.172610
    27  C   -0.481298
    28  H    0.137659
    29  H    0.170478
    30  H    0.147894
    31  C   -0.336530
    32  H    0.173290
    33  H    0.155018
    34  H    0.151642
    35  C   -0.569015
    36  H    0.177583
    37  H    0.185995
    38  H    0.165796
    39  C   -0.591509
    40  H    0.203259
    41  H    0.229493
    42  H    0.202921
 Sum of Mulliken charges =   1.00000
 Mulliken charges with hydrogens summed into heavy atoms:
               1
     1  C    0.399584
     2  C   -0.634291
     3  C    0.015629
     4  C    0.117051
     5  C    0.074014
     6  C    0.387175
    13  C    0.114740
    14  C    0.250787
    15  C   -0.078846
    16  C    0.143391
    23  C    0.088090
    27  C   -0.025267
    31  C    0.143420
    35  C   -0.039641
    39  C    0.044164
 Electronic spatial extent (au):  <R**2>=           8088.9387
 Charge=              1.0000 electrons
 Dipole moment (field-independent basis, Debye):
    X=             16.8386    Y=             -3.5992    Z=             -9.2001  Tot=             19.5226
 Quadrupole moment (field-independent basis, Debye-Ang):
   XX=            -12.1634   YY=            -85.7397   ZZ=            -63.2566
   XY=            -13.7847   XZ=            -27.6216   YZ=              8.7672
 Traceless Quadrupole moment (field-independent basis, Debye-Ang):
   XX=             41.5564   YY=            -32.0198   ZZ=             -9.5367
   XY=            -13.7847   XZ=            -27.6216   YZ=              8.7672
 Octapole moment (field-independent basis, Debye-Ang**2):
  XXX=           -250.5642  YYY=            225.9816  ZZZ=            542.8426  XYY=           -193.2345
  XXY=              5.5886  XXZ=             88.0371  XZZ=           -139.6722  YZZ=             47.8302
  YYZ=            202.6332  XYZ=             25.2471
 Hexadecapole moment (field-independent basis, Debye-Ang**3):
 XXXX=          -3002.5250 YYYY=          -1031.9174 ZZZZ=          -4216.4588 XXXY=            137.6948
 XXXZ=            608.2794 YYYX=            496.5248 YYYZ=           -669.8356 ZZZX=            964.0840
 ZZZY=           -565.5889 XXYY=           -904.6333 XXZZ=          -1278.9449 YYZZ=           -900.5848
 XXYZ=           -101.2539 YYXZ=            363.4614 ZZXY=            109.0431
 N-N= 1.149072764498D+03 E-N=-3.637607308996D+03  KE= 5.818120722167D+02
 Unable to Open any file for archive entry.
 1\1\GINC-NOVA18-WIDE-2\FOpt\RB3LYP\6-31+G(d,p)\C15H27(1+)\NESEDEEK\01-
 May-2026\0\\# opt b3lyp/6-31+g(d,p) geom=connectivity nosymm\\Title Ca
 rd Required\\1,1\C,3.6397766229,0.1823656999,-1.1252760326\C,2.2531426
 29,-0.704323565,-1.6092428258\C,2.2927066319,-0.7058511609,-3.16682412
 02\C,3.5544880428,-1.3850645159,-3.7006257271\C,4.8515872641,-0.679123
 1611,-3.1292132611\C,4.7024923537,-0.6338062778,-1.6659519149\H,3.5208
 024385,1.0866229631,-1.7282811187\H,3.5874658862,-2.449692589,-3.45345
 10264\H,3.6300327025,-1.3073977982,-4.7867931716\H,5.7428692585,-1.227
 887566,-3.4412557438\H,4.8778888731,0.3332470353,-3.5461046561\H,2.365
 2676496,0.3549300984,-3.4497818532\C,0.9586029179,-1.1748247294,-3.877
 5413469\C,1.0535697064,0.1277546127,-1.1101516702\C,-0.2635983167,-0.3
 737098136,-1.7365467896\C,-0.2061485693,-0.3548817515,-3.2650318913\H,
 -1.1512822092,-0.7263838711,-3.6780440769\H,-0.1138020966,0.6874688758
 ,-3.6011479468\H,1.194051116,1.1802967784,-1.3878092174\H,0.9839854602
 ,0.0845405123,-0.0191849406\H,-0.5075728364,-1.3759291384,-1.367562722
 3\H,-1.0720531296,0.2777208503,-1.3864163983\C,2.2695663676,-2.0836910
 391,-0.9301807353\H,2.97069727,-2.7895942369,-1.3827023847\H,2.5180704
 376,-1.9951609852,0.1309123242\H,1.2818613418,-2.5416638588,-0.9724576
 406\C,0.6765131867,-2.6895381036,-3.7812319977\H,0.4451471455,-3.03094
 4874,-2.7709516938\H,-0.1897892948,-2.9321815244,-4.4049160274\H,1.513
 6574322,-3.287914792,-4.1552186259\C,1.0471169437,-0.8112189944,-5.378
 4521955\H,0.0657732548,-0.9403006227,-5.8458851096\H,1.3464908787,0.23
 25096097,-5.5279910553\H,1.7456187141,-1.4525497482,-5.9247854713\C,3.
 6830295887,0.5323444368,0.3632648186\H,4.6366784196,1.0087377302,0.611
 4899496\H,2.8948573348,1.2472649124,0.6033174112\H,3.5607039658,-0.332
 630701,1.0190602844\C,5.5471673273,-1.503128769,-0.8267395723\H,5.8805
 351827,-2.4005668591,-1.3553517437\H,6.4606592028,-0.912219185,-0.6248
 83879\H,5.114386725,-1.7457089339,0.1441155362\\Version=ES64L-G16RevC.
 01\HF=-587.6473534\RMSD=5.107e-09\RMSF=3.118e-06\Dipole=2.1078213,0.17
 47979,0.7726707\Quadrupole=30.8962013,-23.8059251,-7.0902762,-10.24860
 34,-20.5359878,6.5181888\PG=C01 [X(C15H27)]\\@
 The archive entry for this job was punched.


 LIFE CAN ONLY BE UNDERSTOOD BACKWARD, BUT MUST
 BE LIVED FORWARD. -- KIRKEGAARD
 Job cpu time:       0 days 23 hours 19 minutes 32.7 seconds.
 Elapsed time:       0 days  1 hours 28 minutes  7.4 seconds.
 File lengths (MBytes):  RWF=    123 Int=      0 D2E=      0 Chk=     16 Scr=      2
 Normal termination of Gaussian 16 at Fri May  1 16:39:43 2026.
